LAMMPS data file via write_data, version 14 May 2016, timestep = 9

1000 atoms
2 atom types

4.4753301325813122e-02 2.1040246698674189e+01 xlo xhi
4.4753301325813122e-02 2.1040246698674189e+01 ylo yhi
4.4753301325813122e-02 2.1040246698674189e+01 zlo zhi
1.2856031892791038e-15 1.2856031892791038e-15 1.2856031892791036e-15 xy xz yz

Masses

1 24.305
2 15.9994

PairIJ Coeffs # buck/coul/long

1 1 1.30936e+06 0.104 0 10
1 2 9892.36 0.20199 0 10
2 2 2145.73 0.3 30.2222 10

Bond Coeffs # harmonic


Angle Coeffs # harmonic


Dihedral Coeffs # charmm


Improper Coeffs # cvff


Atoms # full

1 1 1 1.3999999999999999e+00 4.4753301325813122e-02 4.4753301325813122e-02 4.4753301325813122e-02 0 0 0
2 1 1 1.3999999999999999e+00 4.4753301325813379e-02 4.4753301325813379e-02 4.2438519807951742e+00 0 0 0
3 1 1 1.3999999999999999e+00 4.4753301325813635e-02 4.4753301325813635e-02 8.4429506602656410e+00 0 0 0
4 1 1 1.3999999999999999e+00 4.4753301325813892e-02 4.4753301325813892e-02 1.2642049339734358e+01 0 0 0
5 1 1 1.3999999999999999e+00 4.4753301325814149e-02 4.4753301325814149e-02 1.6841148019204830e+01 0 0 0
6 1 1 1.3999999999999999e+00 4.4753301325813379e-02 4.2438519807951742e+00 4.4753301325813122e-02 0 0 0
7 1 1 1.3999999999999999e+00 4.4753301325813635e-02 4.2438519807951751e+00 4.2438519807951751e+00 0 0 0
8 1 1 1.3999999999999999e+00 4.4753301325813892e-02 4.2438519807951769e+00 8.4429506602656410e+00 0 0 0
9 1 1 1.3999999999999999e+00 4.4753301325814149e-02 4.2438519807951769e+00 1.2642049339734358e+01 0 0 0
10 1 1 1.3999999999999999e+00 2.1040246698674185e+01 4.2438519807951733e+00 1.6841148019204830e+01 -1 0 0
11 1 1 1.3999999999999999e+00 4.4753301325813635e-02 8.4429506602656410e+00 4.4753301325813122e-02 0 0 0
12 1 1 1.3999999999999999e+00 4.4753301325813892e-02 8.4429506602656410e+00 4.2438519807951751e+00 0 0 0
13 1 1 1.3999999999999999e+00 4.4753301325814149e-02 8.4429506602656410e+00 8.4429506602656410e+00 0 0 0
14 1 1 1.3999999999999999e+00 2.1040246698674185e+01 8.4429506602656197e+00 1.2642049339734358e+01 -1 0 0
15 1 1 1.3999999999999999e+00 2.1040246698674185e+01 8.4429506602656463e+00 1.6841148019204830e+01 -1 0 0
16 1 1 1.3999999999999999e+00 4.4753301325813892e-02 1.2642049339734358e+01 4.4753301325813122e-02 0 0 0
17 1 1 1.3999999999999999e+00 4.4753301325814149e-02 1.2642049339734358e+01 4.2438519807951751e+00 0 0 0
18 1 1 1.3999999999999999e+00 2.1040246698674185e+01 1.2642049339734358e+01 8.4429506602656410e+00 -1 0 0
19 1 1 1.3999999999999999e+00 2.1040246698674185e+01 1.2642049339734358e+01 1.2642049339734358e+01 -1 0 0
20 1 1 1.3999999999999999e+00 2.1040246698674185e+01 1.2642049339734386e+01 1.6841148019204830e+01 -1 0 0
21 1 1 1.3999999999999999e+00 4.4753301325814149e-02 1.6841148019204830e+01 4.4753301325813122e-02 0 0 0
22 1 1 1.3999999999999999e+00 2.1040246698674185e+01 1.6841148019204830e+01 4.2438519807951751e+00 -1 0 0
23 1 1 1.3999999999999999e+00 2.1040246698674185e+01 1.6841148019204830e+01 8.4429506602656410e+00 -1 0 0
24 1 1 1.3999999999999999e+00 2.1040246698674185e+01 1.6841148019204830e+01 1.2642049339734358e+01 -1 0 0
25 1 1 1.3999999999999999e+00 2.1040246698674185e+01 1.6841148019204830e+01 1.6841148019204830e+01 -1 0 0
26 1 1 1.3999999999999999e+00 4.2438519807951742e+00 4.4753301325813122e-02 4.4753301325813122e-02 0 0 0
27 1 1 1.3999999999999999e+00 4.2438519807951751e+00 4.4753301325813379e-02 4.2438519807951751e+00 0 0 0
28 1 1 1.3999999999999999e+00 4.2438519807951769e+00 4.4753301325813635e-02 8.4429506602656410e+00 0 0 0
29 1 1 1.3999999999999999e+00 4.2438519807951769e+00 4.4753301325813892e-02 1.2642049339734358e+01 0 0 0
30 1 1 1.3999999999999999e+00 4.2438519807951733e+00 4.4753301325814149e-02 1.6841148019204830e+01 0 0 0
31 1 1 1.3999999999999999e+00 4.2438519807951751e+00 4.2438519807951751e+00 4.4753301325813122e-02 0 0 0
32 1 1 1.3999999999999999e+00 4.2438519807951751e+00 4.2438519807951751e+00 4.2438519807951751e+00 0 0 0
33 1 1 1.3999999999999999e+00 4.2438519807951769e+00 4.2438519807951769e+00 8.4429506602656410e+00 0 0 0
34 1 1 1.3999999999999999e+00 4.2438519807951769e+00 4.2438519807951769e+00 1.2642049339734358e+01 0 0 0
35 1 1 1.3999999999999999e+00 4.2438519807951733e+00 4.2438519807951733e+00 1.6841148019204830e+01 0 0 0
36 1 1 1.3999999999999999e+00 4.2438519807951769e+00 8.4429506602656410e+00 4.4753301325813122e-02 0 0 0
37 1 1 1.3999999999999999e+00 4.2438519807951769e+00 8.4429506602656410e+00 4.2438519807951751e+00 0 0 0
38 1 1 1.3999999999999999e+00 4.2438519807951911e+00 8.4429506602656410e+00 8.4429506602656410e+00 0 0 0
39 1 1 1.3999999999999999e+00 4.2438519807951911e+00 8.4429506602656197e+00 1.2642049339734358e+01 0 0 0
40 1 1 1.3999999999999999e+00 4.2438519807951760e+00 8.4429506602656463e+00 1.6841148019204830e+01 0 0 0
41 1 1 1.3999999999999999e+00 4.2438519807951769e+00 1.2642049339734358e+01 4.4753301325813122e-02 0 0 0
42 1 1 1.3999999999999999e+00 4.2438519807951769e+00 1.2642049339734358e+01 4.2438519807951751e+00 0 0 0
43 1 1 1.3999999999999999e+00 4.2438519807951911e+00 1.2642049339734358e+01 8.4429506602656410e+00 0 0 0
44 1 1 1.3999999999999999e+00 4.2438519807951911e+00 1.2642049339734358e+01 1.2642049339734358e+01 0 0 0
45 1 1 1.3999999999999999e+00 4.2438519807951760e+00 1.2642049339734386e+01 1.6841148019204830e+01 0 0 0
46 1 1 1.3999999999999999e+00 4.2438519807951733e+00 1.6841148019204830e+01 4.4753301325813122e-02 0 0 0
47 1 1 1.3999999999999999e+00 4.2438519807951733e+00 1.6841148019204830e+01 4.2438519807951751e+00 0 0 0
48 1 1 1.3999999999999999e+00 4.2438519807951760e+00 1.6841148019204830e+01 8.4429506602656410e+00 0 0 0
49 1 1 1.3999999999999999e+00 4.2438519807951760e+00 1.6841148019204830e+01 1.2642049339734358e+01 0 0 0
50 1 1 1.3999999999999999e+00 4.2438519807951645e+00 1.6841148019204830e+01 1.6841148019204830e+01 0 0 0
51 1 1 1.3999999999999999e+00 8.4429506602656410e+00 4.4753301325813122e-02 4.4753301325813122e-02 0 0 0
52 1 1 1.3999999999999999e+00 8.4429506602656410e+00 4.4753301325813379e-02 4.2438519807951751e+00 0 0 0
53 1 1 1.3999999999999999e+00 8.4429506602656410e+00 4.4753301325813635e-02 8.4429506602656410e+00 0 0 0
54 1 1 1.3999999999999999e+00 8.4429506602656197e+00 4.4753301325813892e-02 1.2642049339734358e+01 0 0 0
55 1 1 1.3999999999999999e+00 8.4429506602656463e+00 4.4753301325814149e-02 1.6841148019204830e+01 0 0 0
56 1 1 1.3999999999999999e+00 8.4429506602656410e+00 4.2438519807951751e+00 4.4753301325813122e-02 0 0 0
57 1 1 1.3999999999999999e+00 8.4429506602656410e+00 4.2438519807951751e+00 4.2438519807951751e+00 0 0 0
58 1 1 1.3999999999999999e+00 8.4429506602656410e+00 4.2438519807951769e+00 8.4429506602656410e+00 0 0 0
59 1 1 1.3999999999999999e+00 8.4429506602656197e+00 4.2438519807951769e+00 1.2642049339734358e+01 0 0 0
60 1 1 1.3999999999999999e+00 8.4429506602656463e+00 4.2438519807951733e+00 1.6841148019204830e+01 0 0 0
61 1 1 1.3999999999999999e+00 8.4429506602656410e+00 8.4429506602656410e+00 4.4753301325813122e-02 0 0 0
62 1 1 1.3999999999999999e+00 8.4429506602656410e+00 8.4429506602656410e+00 4.2438519807951751e+00 0 0 0
63 1 1 1.3999999999999999e+00 8.4429506602656410e+00 8.4429506602656410e+00 8.4429506602656410e+00 0 0 0
64 1 1 1.3999999999999999e+00 8.4429506602656197e+00 8.4429506602656197e+00 1.2642049339734358e+01 0 0 0
65 1 1 1.3999999999999999e+00 8.4429506602656463e+00 8.4429506602656463e+00 1.6841148019204830e+01 0 0 0
66 1 1 1.3999999999999999e+00 8.4429506602656197e+00 1.2642049339734358e+01 4.4753301325813122e-02 0 0 0
67 1 1 1.3999999999999999e+00 8.4429506602656197e+00 1.2642049339734358e+01 4.2438519807951751e+00 0 0 0
68 1 1 1.3999999999999999e+00 8.4429506602656197e+00 1.2642049339734358e+01 8.4429506602656410e+00 0 0 0
69 1 1 1.3999999999999999e+00 8.4429506602655859e+00 1.2642049339734358e+01 1.2642049339734358e+01 0 0 0
70 1 1 1.3999999999999999e+00 8.4429506602656339e+00 1.2642049339734386e+01 1.6841148019204830e+01 0 0 0
71 1 1 1.3999999999999999e+00 8.4429506602656463e+00 1.6841148019204830e+01 4.4753301325813122e-02 0 0 0
72 1 1 1.3999999999999999e+00 8.4429506602656463e+00 1.6841148019204830e+01 4.2438519807951751e+00 0 0 0
73 1 1 1.3999999999999999e+00 8.4429506602656463e+00 1.6841148019204830e+01 8.4429506602656410e+00 0 0 0
74 1 1 1.3999999999999999e+00 8.4429506602656339e+00 1.6841148019204830e+01 1.2642049339734358e+01 0 0 0
75 1 1 1.3999999999999999e+00 8.4429506602656730e+00 1.6841148019204830e+01 1.6841148019204830e+01 0 0 0
76 1 1 1.3999999999999999e+00 1.2642049339734358e+01 4.4753301325813122e-02 4.4753301325813122e-02 0 0 0
77 1 1 1.3999999999999999e+00 1.2642049339734358e+01 4.4753301325813379e-02 4.2438519807951751e+00 0 0 0
78 1 1 1.3999999999999999e+00 1.2642049339734358e+01 4.4753301325813635e-02 8.4429506602656410e+00 0 0 0
79 1 1 1.3999999999999999e+00 1.2642049339734358e+01 4.4753301325813892e-02 1.2642049339734358e+01 0 0 0
80 1 1 1.3999999999999999e+00 1.2642049339734386e+01 4.4753301325814149e-02 1.6841148019204830e+01 0 0 0
81 1 1 1.3999999999999999e+00 1.2642049339734358e+01 4.2438519807951751e+00 4.4753301325813122e-02 0 0 0
82 1 1 1.3999999999999999e+00 1.2642049339734358e+01 4.2438519807951751e+00 4.2438519807951751e+00 0 0 0
83 1 1 1.3999999999999999e+00 1.2642049339734358e+01 4.2438519807951769e+00 8.4429506602656410e+00 0 0 0
84 1 1 1.3999999999999999e+00 1.2642049339734358e+01 4.2438519807951769e+00 1.2642049339734358e+01 0 0 0
85 1 1 1.3999999999999999e+00 1.2642049339734386e+01 4.2438519807951733e+00 1.6841148019204830e+01 0 0 0
86 1 1 1.3999999999999999e+00 1.2642049339734358e+01 8.4429506602656410e+00 4.4753301325813122e-02 0 0 0
87 1 1 1.3999999999999999e+00 1.2642049339734358e+01 8.4429506602656410e+00 4.2438519807951751e+00 0 0 0
88 1 1 1.3999999999999999e+00 1.2642049339734358e+01 8.4429506602656410e+00 8.4429506602656410e+00 0 0 0
89 1 1 1.3999999999999999e+00 1.2642049339734358e+01 8.4429506602656197e+00 1.2642049339734358e+01 0 0 0
90 1 1 1.3999999999999999e+00 1.2642049339734386e+01 8.4429506602656463e+00 1.6841148019204830e+01 0 0 0
91 1 1 1.3999999999999999e+00 1.2642049339734358e+01 1.2642049339734358e+01 4.4753301325813122e-02 0 0 0
92 1 1 1.3999999999999999e+00 1.2642049339734358e+01 1.2642049339734358e+01 4.2438519807951751e+00 0 0 0
93 1 1 1.3999999999999999e+00 1.2642049339734358e+01 1.2642049339734358e+01 8.4429506602656410e+00 0 0 0
94 1 1 1.3999999999999999e+00 1.2642049339734358e+01 1.2642049339734358e+01 1.2642049339734358e+01 0 0 0
95 1 1 1.3999999999999999e+00 1.2642049339734386e+01 1.2642049339734386e+01 1.6841148019204830e+01 0 0 0
96 1 1 1.3999999999999999e+00 1.2642049339734386e+01 1.6841148019204830e+01 4.4753301325813122e-02 0 0 0
97 1 1 1.3999999999999999e+00 1.2642049339734386e+01 1.6841148019204830e+01 4.2438519807951751e+00 0 0 0
98 1 1 1.3999999999999999e+00 1.2642049339734386e+01 1.6841148019204830e+01 8.4429506602656410e+00 0 0 0
99 1 1 1.3999999999999999e+00 1.2642049339734386e+01 1.6841148019204830e+01 1.2642049339734358e+01 0 0 0
100 1 1 1.3999999999999999e+00 1.2642049339734443e+01 1.6841148019204830e+01 1.6841148019204830e+01 0 0 0
101 1 1 1.3999999999999999e+00 1.6841148019204830e+01 4.4753301325813122e-02 4.4753301325813122e-02 0 0 0
102 1 1 1.3999999999999999e+00 1.6841148019204830e+01 4.4753301325813379e-02 4.2438519807951751e+00 0 0 0
103 1 1 1.3999999999999999e+00 1.6841148019204830e+01 4.4753301325813635e-02 8.4429506602656410e+00 0 0 0
104 1 1 1.3999999999999999e+00 1.6841148019204830e+01 4.4753301325813892e-02 1.2642049339734358e+01 0 0 0
105 1 1 1.3999999999999999e+00 1.6841148019204830e+01 4.4753301325814149e-02 1.6841148019204830e+01 0 0 0
106 1 1 1.3999999999999999e+00 1.6841148019204830e+01 4.2438519807951751e+00 4.4753301325813122e-02 0 0 0
107 1 1 1.3999999999999999e+00 1.6841148019204830e+01 4.2438519807951751e+00 4.2438519807951751e+00 0 0 0
108 1 1 1.3999999999999999e+00 1.6841148019204830e+01 4.2438519807951769e+00 8.4429506602656410e+00 0 0 0
109 1 1 1.3999999999999999e+00 1.6841148019204830e+01 4.2438519807951769e+00 1.2642049339734358e+01 0 0 0
110 1 1 1.3999999999999999e+00 1.6841148019204830e+01 4.2438519807951733e+00 1.6841148019204830e+01 0 0 0
111 1 1 1.3999999999999999e+00 1.6841148019204830e+01 8.4429506602656410e+00 4.4753301325813122e-02 0 0 0
112 1 1 1.3999999999999999e+00 1.6841148019204830e+01 8.4429506602656410e+00 4.2438519807951751e+00 0 0 0
113 1 1 1.3999999999999999e+00 1.6841148019204830e+01 8.4429506602656410e+00 8.4429506602656410e+00 0 0 0
114 1 1 1.3999999999999999e+00 1.6841148019204830e+01 8.4429506602656197e+00 1.2642049339734358e+01 0 0 0
115 1 1 1.3999999999999999e+00 1.6841148019204830e+01 8.4429506602656463e+00 1.6841148019204830e+01 0 0 0
116 1 1 1.3999999999999999e+00 1.6841148019204830e+01 1.2642049339734358e+01 4.4753301325813122e-02 0 0 0
117 1 1 1.3999999999999999e+00 1.6841148019204830e+01 1.2642049339734358e+01 4.2438519807951751e+00 0 0 0
118 1 1 1.3999999999999999e+00 1.6841148019204830e+01 1.2642049339734358e+01 8.4429506602656410e+00 0 0 0
119 1 1 1.3999999999999999e+00 1.6841148019204830e+01 1.2642049339734358e+01 1.2642049339734358e+01 0 0 0
120 1 1 1.3999999999999999e+00 1.6841148019204830e+01 1.2642049339734386e+01 1.6841148019204830e+01 0 0 0
121 1 1 1.3999999999999999e+00 1.6841148019204830e+01 1.6841148019204830e+01 4.4753301325813122e-02 0 0 0
122 1 1 1.3999999999999999e+00 1.6841148019204830e+01 1.6841148019204830e+01 4.2438519807951751e+00 0 0 0
123 1 1 1.3999999999999999e+00 1.6841148019204830e+01 1.6841148019204830e+01 8.4429506602656410e+00 0 0 0
124 1 1 1.3999999999999999e+00 1.6841148019204830e+01 1.6841148019204830e+01 1.2642049339734358e+01 0 0 0
125 1 1 1.3999999999999999e+00 1.6841148019204830e+01 1.6841148019204830e+01 1.6841148019204830e+01 0 0 0
126 1 1 1.3999999999999999e+00 4.4753301325813379e-02 2.1443026410611448e+00 2.1443026410611448e+00 0 0 0
127 1 1 1.3999999999999999e+00 4.4753301325813635e-02 2.1443026410611452e+00 6.3434013205300381e+00 0 0 0
128 1 1 1.3999999999999999e+00 4.4753301325813892e-02 2.1443026410611425e+00 1.0542499999999999e+01 0 0 0
129 1 1 1.3999999999999999e+00 4.4753301325814149e-02 2.1443026410611448e+00 1.4741598679469957e+01 0 0 0
130 1 1 1.3999999999999999e+00 2.1040246698674185e+01 2.1443026410611452e+00 1.8940697358938863e+01 -1 0 0
131 1 1 1.3999999999999999e+00 4.4753301325813635e-02 6.3434013205300381e+00 2.1443026410611448e+00 0 0 0
132 1 1 1.3999999999999999e+00 4.4753301325813892e-02 6.3434013205300372e+00 6.3434013205300372e+00 0 0 0
133 1 1 1.3999999999999999e+00 4.4753301325814149e-02 6.3434013205300364e+00 1.0542499999999999e+01 0 0 0
134 1 1 1.3999999999999999e+00 2.1040246698674185e+01 6.3434013205300355e+00 1.4741598679469957e+01 -1 0 0
135 1 1 1.3999999999999999e+00 2.1040246698674185e+01 6.3434013205300364e+00 1.8940697358938863e+01 -1 0 0
136 1 1 1.3999999999999999e+00 4.4753301325813892e-02 1.0542499999999999e+01 2.1443026410611448e+00 0 0 0
137 1 1 1.3999999999999999e+00 4.4753301325814149e-02 1.0542499999999999e+01 6.3434013205300381e+00 0 0 0
138 1 1 1.3999999999999999e+00 2.1040246698674185e+01 1.0542499999999983e+01 1.0542499999999999e+01 -1 0 0
139 1 1 1.3999999999999999e+00 2.1040246698674185e+01 1.0542500000000000e+01 1.4741598679469957e+01 -1 0 0
140 1 1 1.3999999999999999e+00 2.1040246698674185e+01 1.0542500000000000e+01 1.8940697358938863e+01 -1 0 0
141 1 1 1.3999999999999999e+00 4.4753301325814149e-02 1.4741598679469957e+01 2.1443026410611448e+00 0 0 0
142 1 1 1.3999999999999999e+00 2.1040246698674185e+01 1.4741598679469957e+01 6.3434013205300372e+00 -1 0 0
143 1 1 1.3999999999999999e+00 2.1040246698674185e+01 1.4741598679469957e+01 1.0542499999999999e+01 -1 0 0
144 1 1 1.3999999999999999e+00 2.1040246698674185e+01 1.4741598679470007e+01 1.4741598679469957e+01 -1 0 0
145 1 1 1.3999999999999999e+00 2.1040246698674185e+01 1.4741598679470007e+01 1.8940697358938863e+01 -1 0 0
146 1 1 1.3999999999999999e+00 2.1040246698674185e+01 1.8940697358938863e+01 2.1443026410611448e+00 -1 0 0
147 1 1 1.3999999999999999e+00 2.1040246698674185e+01 1.8940697358938863e+01 6.3434013205300381e+00 -1 0 0
148 1 1 1.3999999999999999e+00 2.1040246698674185e+01 1.8940697358938863e+01 1.0542499999999999e+01 -1 0 0
149 1 1 1.3999999999999999e+00 2.1040246698674185e+01 1.8940697358938863e+01 1.4741598679469957e+01 -1 0 0
150 1 1 1.3999999999999999e+00 2.1040246698674185e+01 1.8940697358938863e+01 1.8940697358938863e+01 -1 0 0
151 1 1 1.3999999999999999e+00 4.2438519807951751e+00 2.1443026410611430e+00 2.1443026410611430e+00 0 0 0
152 1 1 1.3999999999999999e+00 4.2438519807951645e+00 2.1443026410611452e+00 6.3434013205300381e+00 0 0 0
153 1 1 1.3999999999999999e+00 4.2438519807951769e+00 2.1443026410611412e+00 1.0542499999999999e+01 0 0 0
154 1 1 1.3999999999999999e+00 4.2438519807951733e+00 2.1443026410611448e+00 1.4741598679469957e+01 0 0 0
155 1 1 1.3999999999999999e+00 4.2438519807951733e+00 2.1443026410611443e+00 1.8940697358938863e+01 0 0 0
156 1 1 1.3999999999999999e+00 4.2438519807951645e+00 6.3434013205300381e+00 2.1443026410611448e+00 0 0 0
157 1 1 1.3999999999999999e+00 4.2438519807951485e+00 6.3434013205300381e+00 6.3434013205300381e+00 0 0 0
158 1 1 1.3999999999999999e+00 4.2438519807951733e+00 6.3434013205300364e+00 1.0542499999999999e+01 0 0 0
159 1 1 1.3999999999999999e+00 4.2438519807951547e+00 6.3434013205300364e+00 1.4741598679469957e+01 0 0 0
160 1 1 1.3999999999999999e+00 4.2438519807951547e+00 6.3434013205300364e+00 1.8940697358938863e+01 0 0 0
161 1 1 1.3999999999999999e+00 4.2438519807951769e+00 1.0542499999999999e+01 2.1443026410611430e+00 0 0 0
162 1 1 1.3999999999999999e+00 4.2438519807951733e+00 1.0542499999999999e+01 6.3434013205300390e+00 0 0 0
163 1 1 1.3999999999999999e+00 4.2438519807951911e+00 1.0542499999999983e+01 1.0542499999999999e+01 0 0 0
164 1 1 1.3999999999999999e+00 4.2438519807951760e+00 1.0542500000000000e+01 1.4741598679469957e+01 0 0 0
165 1 1 1.3999999999999999e+00 4.2438519807951760e+00 1.0542500000000000e+01 1.8940697358938863e+01 0 0 0
166 1 1 1.3999999999999999e+00 4.2438519807951733e+00 1.4741598679469957e+01 2.1443026410611448e+00 0 0 0
167 1 1 1.3999999999999999e+00 4.2438519807951547e+00 1.4741598679469957e+01 6.3434013205300381e+00 0 0 0
168 1 1 1.3999999999999999e+00 4.2438519807951760e+00 1.4741598679469957e+01 1.0542499999999999e+01 0 0 0
169 1 1 1.3999999999999999e+00 4.2438519807951645e+00 1.4741598679470007e+01 1.4741598679469957e+01 0 0 0
170 1 1 1.3999999999999999e+00 4.2438519807951645e+00 1.4741598679470007e+01 1.8940697358938863e+01 0 0 0
171 1 1 1.3999999999999999e+00 4.2438519807951733e+00 1.8940697358938863e+01 2.1443026410611430e+00 0 0 0
172 1 1 1.3999999999999999e+00 4.2438519807951547e+00 1.8940697358938863e+01 6.3434013205300381e+00 0 0 0
173 1 1 1.3999999999999999e+00 4.2438519807951760e+00 1.8940697358938863e+01 1.0542499999999999e+01 0 0 0
174 1 1 1.3999999999999999e+00 4.2438519807951645e+00 1.8940697358938863e+01 1.4741598679469957e+01 0 0 0
175 1 1 1.3999999999999999e+00 4.2438519807951645e+00 1.8940697358938863e+01 1.8940697358938863e+01 0 0 0
176 1 1 1.3999999999999999e+00 8.4429506602656410e+00 2.1443026410611448e+00 2.1443026410611448e+00 0 0 0
177 1 1 1.3999999999999999e+00 8.4429506602656410e+00 2.1443026410611452e+00 6.3434013205300381e+00 0 0 0
178 1 1 1.3999999999999999e+00 8.4429506602656197e+00 2.1443026410611425e+00 1.0542499999999999e+01 0 0 0
179 1 1 1.3999999999999999e+00 8.4429506602656463e+00 2.1443026410611448e+00 1.4741598679469957e+01 0 0 0
180 1 1 1.3999999999999999e+00 8.4429506602656463e+00 2.1443026410611452e+00 1.8940697358938863e+01 0 0 0
181 1 1 1.3999999999999999e+00 8.4429506602656410e+00 6.3434013205300381e+00 2.1443026410611448e+00 0 0 0
182 1 1 1.3999999999999999e+00 8.4429506602656410e+00 6.3434013205300381e+00 6.3434013205300381e+00 0 0 0
183 1 1 1.3999999999999999e+00 8.4429506602656197e+00 6.3434013205300364e+00 1.0542499999999999e+01 0 0 0
184 1 1 1.3999999999999999e+00 8.4429506602656463e+00 6.3434013205300364e+00 1.4741598679469957e+01 0 0 0
185 1 1 1.3999999999999999e+00 8.4429506602656463e+00 6.3434013205300364e+00 1.8940697358938863e+01 0 0 0
186 1 1 1.3999999999999999e+00 8.4429506602656197e+00 1.0542499999999999e+01 2.1443026410611448e+00 0 0 0
187 1 1 1.3999999999999999e+00 8.4429506602656197e+00 1.0542499999999999e+01 6.3434013205300381e+00 0 0 0
188 1 1 1.3999999999999999e+00 8.4429506602655859e+00 1.0542499999999983e+01 1.0542499999999999e+01 0 0 0
189 1 1 1.3999999999999999e+00 8.4429506602656339e+00 1.0542500000000000e+01 1.4741598679469957e+01 0 0 0
190 1 1 1.3999999999999999e+00 8.4429506602656339e+00 1.0542500000000000e+01 1.8940697358938863e+01 0 0 0
191 1 1 1.3999999999999999e+00 8.4429506602656463e+00 1.4741598679469957e+01 2.1443026410611448e+00 0 0 0
192 1 1 1.3999999999999999e+00 8.4429506602656463e+00 1.4741598679469957e+01 6.3434013205300381e+00 0 0 0
193 1 1 1.3999999999999999e+00 8.4429506602656339e+00 1.4741598679469957e+01 1.0542499999999999e+01 0 0 0
194 1 1 1.3999999999999999e+00 8.4429506602656730e+00 1.4741598679470007e+01 1.4741598679469957e+01 0 0 0
195 1 1 1.3999999999999999e+00 8.4429506602656730e+00 1.4741598679470007e+01 1.8940697358938863e+01 0 0 0
196 1 1 1.3999999999999999e+00 8.4429506602656463e+00 1.8940697358938863e+01 2.1443026410611448e+00 0 0 0
197 1 1 1.3999999999999999e+00 8.4429506602656463e+00 1.8940697358938863e+01 6.3434013205300381e+00 0 0 0
198 1 1 1.3999999999999999e+00 8.4429506602656339e+00 1.8940697358938863e+01 1.0542499999999999e+01 0 0 0
199 1 1 1.3999999999999999e+00 8.4429506602656730e+00 1.8940697358938863e+01 1.4741598679469957e+01 0 0 0
200 1 1 1.3999999999999999e+00 8.4429506602656730e+00 1.8940697358938863e+01 1.8940697358938863e+01 0 0 0
201 1 1 1.3999999999999999e+00 1.2642049339734358e+01 2.1443026410611448e+00 2.1443026410611448e+00 0 0 0
202 1 1 1.3999999999999999e+00 1.2642049339734358e+01 2.1443026410611452e+00 6.3434013205300381e+00 0 0 0
203 1 1 1.3999999999999999e+00 1.2642049339734358e+01 2.1443026410611425e+00 1.0542499999999999e+01 0 0 0
204 1 1 1.3999999999999999e+00 1.2642049339734386e+01 2.1443026410611448e+00 1.4741598679469957e+01 0 0 0
205 1 1 1.3999999999999999e+00 1.2642049339734386e+01 2.1443026410611452e+00 1.8940697358938863e+01 0 0 0
206 1 1 1.3999999999999999e+00 1.2642049339734358e+01 6.3434013205300381e+00 2.1443026410611448e+00 0 0 0
207 1 1 1.3999999999999999e+00 1.2642049339734358e+01 6.3434013205300381e+00 6.3434013205300381e+00 0 0 0
208 1 1 1.3999999999999999e+00 1.2642049339734358e+01 6.3434013205300364e+00 1.0542499999999999e+01 0 0 0
209 1 1 1.3999999999999999e+00 1.2642049339734386e+01 6.3434013205300364e+00 1.4741598679469957e+01 0 0 0
210 1 1 1.3999999999999999e+00 1.2642049339734386e+01 6.3434013205300364e+00 1.8940697358938863e+01 0 0 0
211 1 1 1.3999999999999999e+00 1.2642049339734358e+01 1.0542499999999999e+01 2.1443026410611448e+00 0 0 0
212 1 1 1.3999999999999999e+00 1.2642049339734358e+01 1.0542499999999999e+01 6.3434013205300381e+00 0 0 0
213 1 1 1.3999999999999999e+00 1.2642049339734358e+01 1.0542499999999983e+01 1.0542499999999999e+01 0 0 0
214 1 1 1.3999999999999999e+00 1.2642049339734386e+01 1.0542500000000000e+01 1.4741598679469957e+01 0 0 0
215 1 1 1.3999999999999999e+00 1.2642049339734386e+01 1.0542500000000000e+01 1.8940697358938863e+01 0 0 0
216 1 1 1.3999999999999999e+00 1.2642049339734386e+01 1.4741598679469957e+01 2.1443026410611448e+00 0 0 0
217 1 1 1.3999999999999999e+00 1.2642049339734386e+01 1.4741598679469957e+01 6.3434013205300381e+00 0 0 0
218 1 1 1.3999999999999999e+00 1.2642049339734386e+01 1.4741598679469957e+01 1.0542499999999999e+01 0 0 0
219 1 1 1.3999999999999999e+00 1.2642049339734443e+01 1.4741598679470007e+01 1.4741598679469957e+01 0 0 0
220 1 1 1.3999999999999999e+00 1.2642049339734443e+01 1.4741598679470007e+01 1.8940697358938863e+01 0 0 0
221 1 1 1.3999999999999999e+00 1.2642049339734386e+01 1.8940697358938863e+01 2.1443026410611448e+00 0 0 0
222 1 1 1.3999999999999999e+00 1.2642049339734386e+01 1.8940697358938863e+01 6.3434013205300381e+00 0 0 0
223 1 1 1.3999999999999999e+00 1.2642049339734386e+01 1.8940697358938863e+01 1.0542499999999999e+01 0 0 0
224 1 1 1.3999999999999999e+00 1.2642049339734443e+01 1.8940697358938863e+01 1.4741598679469957e+01 0 0 0
225 1 1 1.3999999999999999e+00 1.2642049339734443e+01 1.8940697358938863e+01 1.8940697358938863e+01 0 0 0
226 1 1 1.3999999999999999e+00 1.6841148019204830e+01 2.1443026410611430e+00 2.1443026410611430e+00 0 0 0
227 1 1 1.3999999999999999e+00 1.6841148019204830e+01 2.1443026410611452e+00 6.3434013205300381e+00 0 0 0
228 1 1 1.3999999999999999e+00 1.6841148019204830e+01 2.1443026410611412e+00 1.0542499999999999e+01 0 0 0
229 1 1 1.3999999999999999e+00 1.6841148019204830e+01 2.1443026410611448e+00 1.4741598679469957e+01 0 0 0
230 1 1 1.3999999999999999e+00 1.6841148019204830e+01 2.1443026410611443e+00 1.8940697358938863e+01 0 0 0
231 1 1 1.3999999999999999e+00 1.6841148019204830e+01 6.3434013205300381e+00 2.1443026410611448e+00 0 0 0
232 1 1 1.3999999999999999e+00 1.6841148019204830e+01 6.3434013205300381e+00 6.3434013205300381e+00 0 0 0
233 1 1 1.3999999999999999e+00 1.6841148019204830e+01 6.3434013205300364e+00 1.0542499999999999e+01 0 0 0
234 1 1 1.3999999999999999e+00 1.6841148019204830e+01 6.3434013205300364e+00 1.4741598679469957e+01 0 0 0
235 1 1 1.3999999999999999e+00 1.6841148019204830e+01 6.3434013205300364e+00 1.8940697358938863e+01 0 0 0
236 1 1 1.3999999999999999e+00 1.6841148019204830e+01 1.0542499999999999e+01 2.1443026410611430e+00 0 0 0
237 1 1 1.3999999999999999e+00 1.6841148019204830e+01 1.0542499999999999e+01 6.3434013205300390e+00 0 0 0
238 1 1 1.3999999999999999e+00 1.6841148019204830e+01 1.0542499999999983e+01 1.0542499999999999e+01 0 0 0
239 1 1 1.3999999999999999e+00 1.6841148019204830e+01 1.0542500000000000e+01 1.4741598679469957e+01 0 0 0
240 1 1 1.3999999999999999e+00 1.6841148019204830e+01 1.0542500000000000e+01 1.8940697358938863e+01 0 0 0
241 1 1 1.3999999999999999e+00 1.6841148019204830e+01 1.4741598679469957e+01 2.1443026410611448e+00 0 0 0
242 1 1 1.3999999999999999e+00 1.6841148019204830e+01 1.4741598679469957e+01 6.3434013205300381e+00 0 0 0
243 1 1 1.3999999999999999e+00 1.6841148019204830e+01 1.4741598679469957e+01 1.0542499999999999e+01 0 0 0
244 1 1 1.3999999999999999e+00 1.6841148019204830e+01 1.4741598679470007e+01 1.4741598679469957e+01 0 0 0
245 1 1 1.3999999999999999e+00 1.6841148019204830e+01 1.4741598679470007e+01 1.8940697358938863e+01 0 0 0
246 1 1 1.3999999999999999e+00 1.6841148019204830e+01 1.8940697358938863e+01 2.1443026410611430e+00 0 0 0
247 1 1 1.3999999999999999e+00 1.6841148019204830e+01 1.8940697358938863e+01 6.3434013205300381e+00 0 0 0
248 1 1 1.3999999999999999e+00 1.6841148019204830e+01 1.8940697358938863e+01 1.0542499999999999e+01 0 0 0
249 1 1 1.3999999999999999e+00 1.6841148019204830e+01 1.8940697358938863e+01 1.4741598679469957e+01 0 0 0
250 1 1 1.3999999999999999e+00 1.6841148019204830e+01 1.8940697358938863e+01 1.8940697358938863e+01 0 0 0
251 1 1 1.3999999999999999e+00 2.1443026410611448e+00 4.4753301325813254e-02 2.1443026410611448e+00 0 0 0
252 1 1 1.3999999999999999e+00 2.1443026410611452e+00 4.4753301325813510e-02 6.3434013205300381e+00 0 0 0
253 1 1 1.3999999999999999e+00 2.1443026410611425e+00 4.4753301325813767e-02 1.0542499999999999e+01 0 0 0
254 1 1 1.3999999999999999e+00 2.1443026410611448e+00 4.4753301325814024e-02 1.4741598679469957e+01 0 0 0
255 1 1 1.3999999999999999e+00 2.1443026410611452e+00 4.4753301325814281e-02 1.8940697358938863e+01 0 0 0
256 1 1 1.3999999999999999e+00 2.1443026410611443e+00 4.2438519807951751e+00 2.1443026410611430e+00 0 0 0
257 1 1 1.3999999999999999e+00 2.1443026410611528e+00 4.2438519807951645e+00 6.3434013205300381e+00 0 0 0
258 1 1 1.3999999999999999e+00 2.1443026410611430e+00 4.2438519807951769e+00 1.0542499999999999e+01 0 0 0
259 1 1 1.3999999999999999e+00 2.1443026410611452e+00 4.2438519807951733e+00 1.4741598679469957e+01 0 0 0
260 1 1 1.3999999999999999e+00 2.1443026410611488e+00 4.2438519807951733e+00 1.8940697358938863e+01 0 0 0
261 1 1 1.3999999999999999e+00 2.1443026410611425e+00 8.4429506602656410e+00 2.1443026410611448e+00 0 0 0
262 1 1 1.3999999999999999e+00 2.1443026410611448e+00 8.4429506602656410e+00 6.3434013205300381e+00 0 0 0
263 1 1 1.3999999999999999e+00 2.1443026410611363e+00 8.4429506602656197e+00 1.0542499999999999e+01 0 0 0
264 1 1 1.3999999999999999e+00 2.1443026410611425e+00 8.4429506602656463e+00 1.4741598679469957e+01 0 0 0
265 1 1 1.3999999999999999e+00 2.1443026410611448e+00 8.4429506602656463e+00 1.8940697358938863e+01 0 0 0
266 1 1 1.3999999999999999e+00 2.1443026410611448e+00 1.2642049339734358e+01 2.1443026410611448e+00 0 0 0
267 1 1 1.3999999999999999e+00 2.1443026410611452e+00 1.2642049339734358e+01 6.3434013205300381e+00 0 0 0
268 1 1 1.3999999999999999e+00 2.1443026410611425e+00 1.2642049339734358e+01 1.0542499999999999e+01 0 0 0
269 1 1 1.3999999999999999e+00 2.1443026410611448e+00 1.2642049339734386e+01 1.4741598679469957e+01 0 0 0
270 1 1 1.3999999999999999e+00 2.1443026410611452e+00 1.2642049339734386e+01 1.8940697358938863e+01 0 0 0
271 1 1 1.3999999999999999e+00 2.1443026410611363e+00 1.6841148019204830e+01 2.1443026410611430e+00 0 0 0
272 1 1 1.3999999999999999e+00 2.1443026410611425e+00 1.6841148019204830e+01 6.3434013205300381e+00 0 0 0
273 1 1 1.3999999999999999e+00 2.1443026410611314e+00 1.6841148019204830e+01 1.0542499999999999e+01 0 0 0
274 1 1 1.3999999999999999e+00 2.1443026410611372e+00 1.6841148019204830e+01 1.4741598679469957e+01 0 0 0
275 1 1 1.3999999999999999e+00 2.1443026410611412e+00 1.6841148019204830e+01 1.8940697358938863e+01 0 0 0
276 1 1 1.3999999999999999e+00 6.3434013205300381e+00 4.4753301325813254e-02 2.1443026410611448e+00 0 0 0
277 1 1 1.3999999999999999e+00 6.3434013205300372e+00 4.4753301325813510e-02 6.3434013205300372e+00 0 0 0
278 1 1 1.3999999999999999e+00 6.3434013205300364e+00 4.4753301325813767e-02 1.0542499999999999e+01 0 0 0