pymatgen autogenerated data file

1000 atoms

2 atom types

0 21.085 xlo xhi
0 21.085 ylo yhi
0 21.085 zlo zhi
1.2910838880010972e-15 1.2910838880010972e-15 1.291083888001097e-15 xy xz yz

Masses

1 24.305
2 15.9994

Atoms

1 1 1 0.0 0.0 0.0 0.0
2 1 1 0.0 0.0 0.0 4.2170000000000005
3 1 1 0.0 0.0 0.0 8.434000000000001
4 1 1 0.0 0.0 0.0 12.651
5 1 1 0.0 0.0 0.0 16.868000000000002
6 1 1 0.0 0.0 4.2170000000000005 0.0
7 1 1 0.0 0.0 4.2170000000000005 4.2170000000000005
8 1 1 0.0 0.0 4.2170000000000005 8.434000000000001
9 1 1 0.0 0.0 4.2170000000000005 12.651
10 1 1 0.0 0.0 4.2170000000000005 16.868000000000002
11 1 1 0.0 0.0 8.434000000000001 0.0
12 1 1 0.0 0.0 8.434000000000001 4.2170000000000005
13 1 1 0.0 0.0 8.434000000000001 8.434000000000001
14 1 1 0.0 0.0 8.434000000000001 12.651
15 1 1 0.0 0.0 8.434000000000001 16.868000000000002
16 1 1 0.0 0.0 12.651 0.0
17 1 1 0.0 0.0 12.651 4.2170000000000005
18 1 1 0.0 0.0 12.651 8.434000000000001
19 1 1 0.0 0.0 12.651 12.651
20 1 1 0.0 0.0 12.651 16.868000000000002
21 1 1 0.0 0.0 16.868000000000002 0.0
22 1 1 0.0 0.0 16.868000000000002 4.2170000000000005
23 1 1 0.0 0.0 16.868000000000002 8.434000000000001
24 1 1 0.0 0.0 16.868000000000002 12.651
25 1 1 0.0 0.0 16.868000000000002 16.868000000000002
26 1 1 0.0 4.2170000000000005 0.0 0.0
27 1 1 0.0 4.2170000000000005 0.0 4.2170000000000005
28 1 1 0.0 4.2170000000000005 0.0 8.434000000000001
29 1 1 0.0 4.2170000000000005 0.0 12.651
30 1 1 0.0 4.2170000000000005 0.0 16.868000000000002
31 1 1 0.0 4.2170000000000005 4.2170000000000005 0.0
32 1 1 0.0 4.2170000000000005 4.2170000000000005 4.2170000000000005
33 1 1 0.0 4.2170000000000005 4.2170000000000005 8.434000000000001
34 1 1 0.0 4.2170000000000005 4.2170000000000005 12.651
35 1 1 0.0 4.2170000000000005 4.2170000000000005 16.868000000000002
36 1 1 0.0 4.2170000000000005 8.434000000000001 0.0
37 1 1 0.0 4.2170000000000005 8.434000000000001 4.2170000000000005
38 1 1 0.0 4.2170000000000005 8.434000000000001 8.434000000000001
39 1 1 0.0 4.2170000000000005 8.434000000000001 12.651
40 1 1 0.0 4.2170000000000005 8.434000000000001 16.868000000000002
41 1 1 0.0 4.2170000000000005 12.651 0.0
42 1 1 0.0 4.2170000000000005 12.651 4.2170000000000005
43 1 1 0.0 4.2170000000000005 12.651 8.434000000000001
44 1 1 0.0 4.2170000000000005 12.651 12.651
45 1 1 0.0 4.2170000000000005 12.651 16.868000000000002
46 1 1 0.0 4.2170000000000005 16.868000000000002 0.0
47 1 1 0.0 4.2170000000000005 16.868000000000002 4.2170000000000005
48 1 1 0.0 4.2170000000000005 16.868000000000002 8.434000000000001
49 1 1 0.0 4.2170000000000005 16.868000000000002 12.651
50 1 1 0.0 4.2170000000000005 16.868000000000002 16.868000000000002
51 1 1 0.0 8.434000000000001 0.0 0.0
52 1 1 0.0 8.434000000000001 0.0 4.2170000000000005
53 1 1 0.0 8.434000000000001 0.0 8.434000000000001
54 1 1 0.0 8.434000000000001 0.0 12.651
55 1 1 0.0 8.434000000000001 0.0 16.868000000000002
56 1 1 0.0 8.434000000000001 4.2170000000000005 0.0
57 1 1 0.0 8.434000000000001 4.2170000000000005 4.2170000000000005
58 1 1 0.0 8.434000000000001 4.2170000000000005 8.434000000000001
59 1 1 0.0 8.434000000000001 4.2170000000000005 12.651
60 1 1 0.0 8.434000000000001 4.2170000000000005 16.868000000000002
61 1 1 0.0 8.434000000000001 8.434000000000001 0.0
62 1 1 0.0 8.434000000000001 8.434000000000001 4.2170000000000005
63 1 1 0.0 8.434000000000001 8.434000000000001 8.434000000000001
64 1 1 0.0 8.434000000000001 8.434000000000001 12.651
65 1 1 0.0 8.434000000000001 8.434000000000001 16.868000000000002
66 1 1 0.0 8.434000000000001 12.651 0.0
67 1 1 0.0 8.434000000000001 12.651 4.2170000000000005
68 1 1 0.0 8.434000000000001 12.651 8.434000000000001
69 1 1 0.0 8.434000000000001 12.651 12.651
70 1 1 0.0 8.434000000000001 12.651 16.868000000000002
71 1 1 0.0 8.434000000000001 16.868000000000002 0.0
72 1 1 0.0 8.434000000000001 16.868000000000002 4.2170000000000005
73 1 1 0.0 8.434000000000001 16.868000000000002 8.434000000000001
74 1 1 0.0 8.434000000000001 16.868000000000002 12.651
75 1 1 0.0 8.434000000000001 16.868000000000002 16.868000000000002
76 1 1 0.0 12.651 0.0 0.0
77 1 1 0.0 12.651 0.0 4.2170000000000005
78 1 1 0.0 12.651 0.0 8.434000000000001
79 1 1 0.0 12.651 0.0 12.651
80 1 1 0.0 12.651 0.0 16.868000000000002
81 1 1 0.0 12.651 4.2170000000000005 0.0
82 1 1 0.0 12.651 4.2170000000000005 4.2170000000000005
83 1 1 0.0 12.651 4.2170000000000005 8.434000000000001
84 1 1 0.0 12.651 4.2170000000000005 12.651
85 1 1 0.0 12.651 4.2170000000000005 16.868000000000002
86 1 1 0.0 12.651 8.434000000000001 0.0
87 1 1 0.0 12.651 8.434000000000001 4.2170000000000005
88 1 1 0.0 12.651 8.434000000000001 8.434000000000001
89 1 1 0.0 12.651 8.434000000000001 12.651
90 1 1 0.0 12.651 8.434000000000001 16.868000000000002
91 1 1 0.0 12.651 12.651 0.0
92 1 1 0.0 12.651 12.651 4.2170000000000005
93 1 1 0.0 12.651 12.651 8.434000000000001
94 1 1 0.0 12.651 12.651 12.651
95 1 1 0.0 12.651 12.651 16.868000000000002
96 1 1 0.0 12.651 16.868000000000002 0.0
97 1 1 0.0 12.651 16.868000000000002 4.2170000000000005
98 1 1 0.0 12.651 16.868000000000002 8.434000000000001
99 1 1 0.0 12.651 16.868000000000002 12.651
100 1 1 0.0 12.651 16.868000000000002 16.868000000000002
101 1 1 0.0 16.868000000000002 0.0 0.0
102 1 1 0.0 16.868000000000002 0.0 4.2170000000000005
103 1 1 0.0 16.868000000000002 0.0 8.434000000000001
104 1 1 0.0 16.868000000000002 0.0 12.651
105 1 1 0.0 16.868000000000002 0.0 16.868000000000002
106 1 1 0.0 16.868000000000002 4.2170000000000005 0.0
107 1 1 0.0 16.868000000000002 4.2170000000000005 4.2170000000000005
108 1 1 0.0 16.868000000000002 4.2170000000000005 8.434000000000001
109 1 1 0.0 16.868000000000002 4.2170000000000005 12.651
110 1 1 0.0 16.868000000000002 4.2170000000000005 16.868000000000002
111 1 1 0.0 16.868000000000002 8.434000000000001 0.0
112 1 1 0.0 16.868000000000002 8.434000000000001 4.2170000000000005
113 1 1 0.0 16.868000000000002 8.434000000000001 8.434000000000001
114 1 1 0.0 16.868000000000002 8.434000000000001 12.651
115 1 1 0.0 16.868000000000002 8.434000000000001 16.868000000000002
116 1 1 0.0 16.868000000000002 12.651 0.0
117 1 1 0.0 16.868000000000002 12.651 4.2170000000000005
118 1 1 0.0 16.868000000000002 12.651 8.434000000000001
119 1 1 0.0 16.868000000000002 12.651 12.651
120 1 1 0.0 16.868000000000002 12.651 16.868000000000002
121 1 1 0.0 16.868000000000002 16.868000000000002 0.0
122 1 1 0.0 16.868000000000002 16.868000000000002 4.2170000000000005
123 1 1 0.0 16.868000000000002 16.868000000000002 8.434000000000001
124 1 1 0.0 16.868000000000002 16.868000000000002 12.651
125 1 1 0.0 16.868000000000002 16.868000000000002 16.868000000000002
126 1 1 0.0 0.0 2.1085000000000003 2.1085000000000003
127 1 1 0.0 0.0 2.1085000000000003 6.3255
128 1 1 0.0 0.0 2.1085000000000003 10.5425
129 1 1 0.0 0.0 2.1085000000000003 14.7595
130 1 1 0.0 0.0 2.1085000000000003 18.9765
131 1 1 0.0 0.0 6.3255 2.1085000000000003
132 1 1 0.0 0.0 6.3255 6.3255
133 1 1 0.0 0.0 6.3255 10.5425
134 1 1 0.0 0.0 6.3255 14.7595
135 1 1 0.0 0.0 6.3255 18.9765
136 1 1 0.0 0.0 10.5425 2.1085000000000003
137 1 1 0.0 0.0 10.5425 6.3255
138 1 1 0.0 0.0 10.5425 10.5425
139 1 1 0.0 0.0 10.5425 14.7595
140 1 1 0.0 0.0 10.5425 18.9765
141 1 1 0.0 0.0 14.7595 2.1085000000000003
142 1 1 0.0 0.0 14.7595 6.3255
143 1 1 0.0 0.0 14.7595 10.5425
144 1 1 0.0 0.0 14.7595 14.7595
145 1 1 0.0 0.0 14.7595 18.9765
146 1 1 0.0 0.0 18.9765 2.1085000000000003
147 1 1 0.0 0.0 18.9765 6.3255
148 1 1 0.0 0.0 18.9765 10.5425
149 1 1 0.0 0.0 18.9765 14.7595
150 1 1 0.0 0.0 18.9765 18.9765
151 1 1 0.0 4.2170000000000005 2.1085000000000003 2.1085000000000003
152 1 1 0.0 4.2170000000000005 2.1085000000000003 6.3255
153 1 1 0.0 4.2170000000000005 2.1085000000000003 10.5425
154 1 1 0.0 4.2170000000000005 2.1085000000000003 14.7595
155 1 1 0.0 4.2170000000000005 2.1085000000000003 18.9765
156 1 1 0.0 4.2170000000000005 6.3255 2.1085000000000003
157 1 1 0.0 4.2170000000000005 6.3255 6.3255
158 1 1 0.0 4.2170000000000005 6.3255 10.5425
159 1 1 0.0 4.2170000000000005 6.3255 14.7595
160 1 1 0.0 4.2170000000000005 6.3255 18.9765
161 1 1 0.0 4.2170000000000005 10.5425 2.1085000000000003
162 1 1 0.0 4.2170000000000005 10.5425 6.3255
163 1 1 0.0 4.2170000000000005 10.5425 10.5425
164 1 1 0.0 4.2170000000000005 10.5425 14.7595
165 1 1 0.0 4.2170000000000005 10.5425 18.9765
166 1 1 0.0 4.2170000000000005 14.7595 2.1085000000000003
167 1 1 0.0 4.2170000000000005 14.7595 6.3255
168 1 1 0.0 4.2170000000000005 14.7595 10.5425
169 1 1 0.0 4.2170000000000005 14.7595 14.7595
170 1 1 0.0 4.2170000000000005 14.7595 18.9765
171 1 1 0.0 4.2170000000000005 18.9765 2.1085000000000003
172 1 1 0.0 4.2170000000000005 18.9765 6.3255
173 1 1 0.0 4.2170000000000005 18.9765 10.5425
174 1 1 0.0 4.2170000000000005 18.9765 14.7595
175 1 1 0.0 4.2170000000000005 18.9765 18.9765
176 1 1 0.0 8.434000000000001 2.1085000000000003 2.1085000000000003
177 1 1 0.0 8.434000000000001 2.1085000000000003 6.3255
178 1 1 0.0 8.434000000000001 2.1085000000000003 10.5425
179 1 1 0.0 8.434000000000001 2.1085000000000003 14.7595
180 1 1 0.0 8.434000000000001 2.1085000000000003 18.9765
181 1 1 0.0 8.434000000000001 6.3255 2.1085000000000003
182 1 1 0.0 8.434000000000001 6.3255 6.3255
183 1 1 0.0 8.434000000000001 6.3255 10.5425
184 1 1 0.0 8.434000000000001 6.3255 14.7595
185 1 1 0.0 8.434000000000001 6.3255 18.9765
186 1 1 0.0 8.434000000000001 10.5425 2.1085000000000003
187 1 1 0.0 8.434000000000001 10.5425 6.3255
188 1 1 0.0 8.434000000000001 10.5425 10.5425
189 1 1 0.0 8.434000000000001 10.5425 14.7595
190 1 1 0.0 8.434000000000001 10.5425 18.9765
191 1 1 0.0 8.434000000000001 14.7595 2.1085000000000003
192 1 1 0.0 8.434000000000001 14.7595 6.3255
193 1 1 0.0 8.434000000000001 14.7595 10.5425
194 1 1 0.0 8.434000000000001 14.7595 14.7595
195 1 1 0.0 8.434000000000001 14.7595 18.9765
196 1 1 0.0 8.434000000000001 18.9765 2.1085000000000003
197 1 1 0.0 8.434000000000001 18.9765 6.3255
198 1 1 0.0 8.434000000000001 18.9765 10.5425
199 1 1 0.0 8.434000000000001 18.9765 14.7595
200 1 1 0.0 8.434000000000001 18.9765 18.9765
201 1 1 0.0 12.651 2.1085000000000003 2.1085000000000003
202 1 1 0.0 12.651 2.1085000000000003 6.3255
203 1 1 0.0 12.651 2.1085000000000003 10.5425
204 1 1 0.0 12.651 2.1085000000000003 14.7595
205 1 1 0.0 12.651 2.1085000000000003 18.9765
206 1 1 0.0 12.651 6.3255 2.1085000000000003
207 1 1 0.0 12.651 6.3255 6.3255
208 1 1 0.0 12.651 6.3255 10.5425
209 1 1 0.0 12.651 6.3255 14.7595
210 1 1 0.0 12.651 6.3255 18.9765
211 1 1 0.0 12.651 10.5425 2.1085000000000003
212 1 1 0.0 12.651 10.5425 6.3255
213 1 1 0.0 12.651 10.5425 10.5425
214 1 1 0.0 12.651 10.5425 14.7595
215 1 1 0.0 12.651 10.5425 18.9765
216 1 1 0.0 12.651 14.7595 2.1085000000000003
217 1 1 0.0 12.651 14.7595 6.3255
218 1 1 0.0 12.651 14.7595 10.5425
219 1 1 0.0 12.651 14.7595 14.7595
220 1 1 0.0 12.651 14.7595 18.9765
221 1 1 0.0 12.651 18.9765 2.1085000000000003
222 1 1 0.0 12.651 18.9765 6.3255
223 1 1 0.0 12.651 18.9765 10.5425
224 1 1 0.0 12.651 18.9765 14.7595
225 1 1 0.0 12.651 18.9765 18.9765
226 1 1 0.0 16.868000000000002 2.1085000000000003 2.1085000000000003
227 1 1 0.0 16.868000000000002 2.1085000000000003 6.3255
228 1 1 0.0 16.868000000000002 2.1085000000000003 10.5425
229 1 1 0.0 16.868000000000002 2.1085000000000003 14.7595
230 1 1 0.0 16.868000000000002 2.1085000000000003 18.9765
231 1 1 0.0 16.868000000000002 6.3255 2.1085000000000003
232 1 1 0.0 16.868000000000002 6.3255 6.3255
233 1 1 0.0 16.868000000000002 6.3255 10.5425
234 1 1 0.0 16.868000000000002 6.3255 14.7595
235 1 1 0.0 16.868000000000002 6.3255 18.9765
236 1 1 0.0 16.868000000000002 10.5425 2.1085000000000003
237 1 1 0.0 16.868000000000002 10.5425 6.3255
238 1 1 0.0 16.868000000000002 10.5425 10.5425
239 1 1 0.0 16.868000000000002 10.5425 14.7595
240 1 1 0.0 16.868000000000002 10.5425 18.9765
241 1 1 0.0 16.868000000000002 14.7595 2.1085000000000003
242 1 1 0.0 16.868000000000002 14.7595 6.3255
243 1 1 0.0 16.868000000000002 14.7595 10.5425
244 1 1 0.0 16.868000000000002 14.7595 14.7595
245 1 1 0.0 16.868000000000002 14.7595 18.9765
246 1 1 0.0 16.868000000000002 18.9765 2.1085000000000003
247 1 1 0.0 16.868000000000002 18.9765 6.3255
248 1 1 0.0 16.868000000000002 18.9765 10.5425
249 1 1 0.0 16.868000000000002 18.9765 14.7595
250 1 1 0.0 16.868000000000002 18.9765 18.9765
251 1 1 0.0 2.1085000000000003 0.0 2.1085000000000003
252 1 1 0.0 2.1085000000000003 0.0 6.3255
253 1 1 0.0 2.1085000000000003 0.0 10.5425
254 1 1 0.0 2.1085000000000003 0.0 14.7595
255 1 1 0.0 2.1085000000000003 0.0 18.9765
256 1 1 0.0 2.1085000000000003 4.2170000000000005 2.1085000000000003
257 1 1 0.0 2.1085000000000003 4.2170000000000005 6.3255
258 1 1 0.0 2.1085000000000003 4.2170000000000005 10.5425
259 1 1 0.0 2.1085000000000003 4.2170000000000005 14.7595
260 1 1 0.0 2.1085000000000003 4.2170000000000005 18.9765
261 1 1 0.0 2.1085000000000003 8.434000000000001 2.1085000000000003
262 1 1 0.0 2.1085000000000003 8.434000000000001 6.3255
263 1 1 0.0 2.1085000000000003 8.434000000000001 10.5425
264 1 1 0.0 2.1085000000000003 8.434000000000001 14.7595
265 1 1 0.0 2.1085000000000003 8.434000000000001 18.9765
266 1 1 0.0 2.1085000000000003 12.651 2.1085000000000003
267 1 1 0.0 2.1085000000000003 12.651 6.3255
268 1 1 0.0 2.1085000000000003 12.651 10.5425
269 1 1 0.0 2.1085000000000003 12.651 14.7595
270 1 1 0.0 2.1085000000000003 12.651 18.9765
271 1 1 0.0 2.1085000000000003 16.868000000000002 2.1085000000000003
272 1 1 0.0 2.1085000000000003 16.868000000000002 6.3255
273 1 1 0.0 2.1085000000000003 16.868000000000002 10.5425
274 1 1 0.0 2.1085000000000003 16.868000000000002 14.7595
275 1 1 0.0 2.1085000000000003 16.868000000000002 18.9765
276 1 1 0.0 6.3255 0.0 2.1085000000000003
277 1 1 0.0 6.3255 0.0 6.3255
278 1 1 0.0 6.3255 0.0 10.5425
279 1 1 0.0 6.3255 0.0 14.7595
280 1 1 0.0 6.3255 0.0 18.9765
281 1 1 0.0 6.3255 4.2170000000000005 2.1085000000000003
282 1 1 0.0 6.3255 4.2170000000000005 6.3255
283 1 1 0.0 6.3255 4.2170000000000005 10.5425
284 1 1 0.0 6.3255 4.2170000000000005 14.7595
285 1 1 0.0 6.3255 4.2170000000000005 18.9765
286 1 1 0.0 6.3255 8.434000000000001 2.1085000000000003
287 1 1 0.0 6.3255 8.434000000000001 6.3255
288 1 1 0.0 6.3255 8.434000000000001 10.5425
289 1 1 0.0 6.3255 8.434000000000001 14.7595
290 1 1 0.0 6.3255 8.434000000000001 18.9765
291 1 1 0.0 6.3255 12.651 2.1085000000000003
292 1 1 0.0 6.3255 12.651 6.3255
293 1 1 0.0 6.3255 12.651 10.5425
294 1 1 0.0 6.3255 12.651 14.7595
295 1 1 0.0 6.3255 12.651 18.9765
296 1 1 0.0 6.3255 16.868000000000002 2.1085000000000003
297 1 1 0.0 6.3255 16.868000000000002 6.3255
298 1 1 0.0 6.3255 16.868000000000002 10.5425
299 1 1 0.0 6.3255 16.868000000000002 14.7595
300 1 1 0.0 6.3255 16.868000000000002 18.9765
301 1 1 0.0 10.5425 0.0 2.1085000000000003
302 1 1 0.0 10.5425 0.0 6.3255
303 1 1 0.0 10.5425 0.0 10.5425
304 1 1 0.0 10.5425 0.0 14.7595
305 1 1 0.0 10.5425 0.0 18.9765
306 1 1 0.0 10.5425 4.2170000000000005 2.1085000000000003
307 1 1 0.0 10.5425 4.2170000000000005 6.3255
308 1 1 0.0 10.5425 4.2170000000000005 10.5425
309 1 1 0.0 10.5425 4.2170000000000005 14.7595
310 1 1 0.0 10.5425 4.2170000000000005 18.9765
311 1 1 0.0 10.5425 8.434000000000001 2.1085000000000003
312 1 1 0.0 10.5425 8.434000000000001 6.3255
313 1 1 0.0 10.5425 8.434000000000001 10.5425
314 1 1 0.0 10.5425 8.434000000000001 14.7595
315 1 1 0.0 10.5425 8.434000000000001 18.9765
316 1 1 0.0 10.5425 12.651 2.1085000000000003
317 1 1 0.0 10.5425 12.651 6.3255
318 1 1 0.0 10.5425 12.651 10.5425
319 1 1 0.0 10.5425 12.651 14.7595
320 1 1 0.0 10.5425 12.651 18.9765
321 1 1 0.0 10.5425 16.868000000000002 2.1085000000000003
322 1 1 0.0 10.5425 16.868000000000002 6.3255
323 1 1 0.0 10.5425 16.868000000000002 10.5425
324 1 1 0.0 10.5425 16.868000000000002 14.7595
325 1 1 0.0 10.5425 16.868000000000002 18.9765
326 1 1 0.0 14.7595 0.0 2.1085000000000003
327 1 1 0.0 14.7595 0.0 6.3255
328 1 1 0.0 14.7595 0.0 10.5425
329 1 1 0.0 14.7595 0.0 14.7595
330 1 1 0.0 14.7595 0.0 18.9765
331 1 1 0.0 14.7595 4.2170000000000005 2.1085000000000003
332 1 1 0.0 14.7595 4.2170000000000005 6.3255
333 1 1 0.0 14.7595 4.2170000000000005 10.5425
334 1 1 0.0 14.7595 4.2170000000000005 14.7595
335 1 1 0.0 14.7595 4.2170000000000005 18.9765
336 1 1 0.0 14.7595 8.434000000000001 2.1085000000000003
337 1 1 0.0 14.7595 8.434000000000001 6.3255
338 1 1 0.0 14.7595 8.434000000000001 10.5425
339 1 1 0.0 14.7595 8.434000000000001 14.7595
340 1 1 0.0 14.7595 8.434000000000001 18.9765
341 1 1 0.0 14.7595 12.651 2.1085000000000003
342 1 1 0.0 14.7595 12.651 6.3255
343 1 1 0.0 14.7595 12.651 10.5425
344 1 1 0.0 14.7595 12.651 14.7595
345 1 1 0.0 14.7595 12.651 18.9765
346 1 1 0.0 14.7595 16.868000000000002 2.1085000000000003
347 1 1 0.0 14.7595 16.868000000000002 6.3255
348 1 1 0.0 14.7595 16.868000000000002 10.5425
349 1 1 0.0 14.7595 16.868000000000002 14.7595
350 1 1 0.0 14.7595 16.868000000000002 18.9765
351 1 1 0.0 18.9765 0.0 2.1085000000000003
352 1 1 0.0 18.9765 0.0 6.3255
353 1 1 0.0 18.9765 0.0 10.5425
354 1 1 0.0 18.9765 0.0 14.7595
355 1 1 0.0 18.9765 0.0 18.9765
356 1 1 0.0 18.9765 4.2170000000000005 2.1085000000000003
357 1 1 0.0 18.9765 4.2170000000000005 6.3255
358 1 1 0.0 18.9765 4.2170000000000005 10.5425
359 1 1 0.0 18.9765 4.2170000000000005 14.7595
360 1 1 0.0 18.9765 4.2170000000000005 18.9765
361 1 1 0.0 18.9765 8.434000000000001 2.1085000000000003
362 1 1 0.0 18.9765 8.434000000000001 6.3255
363 1 1 0.0 18.9765 8.434000000000001 10.5425
364 1 1 0.0 18.9765 8.434000000000001 14.7595
365 1 1 0.0 18.9765 8.434000000000001 18.9765
366 1 1 0.0 18.9765 12.651 2.1085000000000003
367 1 1 0.0 18.9765 12.651 6.3255
368 1 1 0.0 18.9765 12.651 10.5425
369 1 1 0.0 18.9765 12.651 14.7595
370 1 1 0.0 18.9765 12.651 18.9765
371 1 1 0.0 18.9765 16.868000000000002 2.1085000000000003
372 1 1 0.0 18.9765 16.868000000000002 6.3255
373 1 1 0.0 18.9765 16.868000000000002 10.5425
374 1 1 0.0 18.9765 16.868000000000002 14.7595
375 1 1 0.0 18.9765 16.868000000000002 18.9765
376 1 1 0.0 2.1085000000000003 2.1085000000000003 0.0
377 1 1 0.0 2.1085000000000003 2.1085000000000003 4.2170000000000005
378 1 1 0.0 2.1085000000000003 2.1085000000000003 8.434000000000001
379 1 1 0.0 2.1085000000000003 2.1085000000000003 12.651
380 1 1 0.0 2.1085000000000003 2.1085000000000003 16.868000000000002
381 1 1 0.0 2.1085000000000003 6.3255 0.0
382 1 1 0.0 2.1085000000000003 6.3255 4.2170000000000005
383 1 1 0.0 2.1085000000000003 6.3255 8.434000000000001
384 1 1 0.0 2.1085000000000003 6.3255 12.651
385 1 1 0.0 2.1085000000000003 6.3255 16.868000000000002
386 1 1 0.0 2.1085000000000003 10.5425 0.0
387 1 1 0.0 2.1085000000000003 10.5425 4.2170000000000005
388 1 1 0.0 2.1085000000000003 10.5425 8.434000000000001
389 1 1 0.0 2.1085000000000003 10.5425 12.651
390 1 1 0.0 2.1085000000000003 10.5425 16.868000000000002
391 1 1 0.0 2.1085000000000003 14.7595 0.0
392 1 1 0.0 2.1085000000000003 14.7595 4.2170000000000005
393 1 1 0.0 2.1085000000000003 14.7595 8.434000000000001
394 1 1 0.0 2.1085000000000003 14.7595 12.651
395 1 1 0.0 2.1085000000000003 14.7595 16.868000000000002
396 1 1 0.0 2.1085000000000003 18.9765 0.0
397 1 1 0.0 2.1085000000000003 18.9765 4.2170000000000005
398 1 1 0.0 2.1085000000000003 18.9765 8.434000000000001
399 1 1 0.0 2.1085000000000003 18.9765 12.651
400 1 1 0.0 2.1085000000000003 18.9765 16.868000000000002
401 1 1 0.0 6.3255 2.1085000000000003 0.0
402 1 1 0.0 6.3255 2.1085000000000003 4.2170000000000005
403 1 1 0.0 6.3255 2.1085000000000003 8.434000000000001
404 1 1 0.0 6.3255 2.1085000000000003 12.651
405 1 1 0.0 6.3255 2.1085000000000003 16.868000000000002
406 1 1 0.0 6.3255 6.3255 0.0
407 1 1 0.0 6.3255 6.3255 4.2170000000000005
408 1 1 0.0 6.3255 6.3255 8.434000000000001
409 1 1 0.0 6.3255 6.3255 12.651
410 1 1 0.0 6.3255 6.3255 16.868000000000002
411 1 1 0.0 6.3255 10.5425 0.0
412 1 1 0.0 6.3255 10.5425 4.2170000000000005
413 1 1 0.0 6.3255 10.5425 8.434000000000001
414 1 1 0.0 6.3255 10.5425 12.651
415 1 1 0.0 6.3255 10.5425 16.868000000000002
416 1 1 0.0 6.3255 14.7595 0.0
417 1 1 0.0 6.3255 14.7595 4.2170000000000005
418 1 1 0.0 6.3255 14.7595 8.434000000000001
419 1 1 0.0 6.3255 14.7595 12.651
420 1 1 0.0 6.3255 14.7595 16.868000000000002
421 1 1 0.0 6.3255 18.9765 0.0
422 1 1 0.0 6.3255 18.9765 4.2170000000000005
423 1 1 0.0 6.3255 18.9765 8.434000000000001
424 1 1 0.0 6.3255 18.9765 12.651
425 1 1 0.0 6.3255 18.9765 16.868000000000002
426 1 1 0.0 10.5425 2.1085000000000003 0.0
427 1 1 0.0 10.5425 2.1085000000000003 4.2170000000000005
428 1 1 0.0 10.5425 2.1085000000000003 8.434000000000001
429 1 1 0.0 10.5425 2.1085000000000003 12.651
430 1 1 0.0 10.5425 2.1085000000000003 16.868000000000002
431 1 1 0.0 10.5425 6.3255 0.0
432 1 1 0.0 10.5425 6.3255 4.2170000000000005
433 1 1 0.0 10.5425 6.3255 8.434000000000001
434 1 1 0.0 10.5425 6.3255 12.651
435 1 1 0.0 10.5425 6.3255 16.868000000000002
436 1 1 0.0 10.5425 10.5425 0.0
437 1 1 0.0 10.5425 10.5425 4.2170000000000005
438 1 1 0.0 10.5425 10.5425 8.434000000000001
439 1 1 0.0 10.5425 10.5425 12.651
440 1 1 0.0 10.5425 10.5425 16.868000000000002
441 1 1 0.0 10.5425 14.7595 0.0
442 1 1 0.0 10.5425 14.7595 4.2170000000000005
443 1 1 0.0 10.5425 14.7595 8.434000000000001
444 1 1 0.0 10.5425 14.7595 12.651
445 1 1 0.0 10.5425 14.7595 16.868000000000002
446 1 1 0.0 10.5425 18.9765 0.0
447 1 1 0.0 10.5425 18.9765 4.2170000000000005
448 1 1 0.0 10.5425 18.9765 8.434000000000001
449 1 1 0.0 10.5425 18.9765 12.651
450 1 1 0.0 10.5425 18.9765 16.868000000000002
451 1 1 0.0 14.7595 2.1085000000000003 0.0
452 1 1 0.0 14.7595 2.1085000000000003 4.2170000000000005
453 1 1 0.0 14.7595 2.1085000000000003 8.434000000000001
454 1 1 0.0 14.7595 2.1085000000000003 12.651
455 1 1 0.0 14.7595 2.1085000000000003 16.868000000000002
456 1 1 0.0 14.7595 6.3255 0.0
457 1 1 0.0 14.7595 6.3255 4.2170000000000005
458 1 1 0.0 14.7595 6.3255 8.434000000000001
459 1 1 0.0 14.7595 6.3255 12.651
460 1 1 0.0 14.7595 6.3255 16.868000000000002
461 1 1 0.0 14.7595 10.5425 0.0
462 1 1 0.0 14.7595 10.5425 4.2170000000000005
463 1 1 0.0 14.7595 10.5425 8.434000000000001
464 1 1 0.0 14.7595 10.5425 12.651
465 1 1 0.0 14.7595 10.5425 16.868000000000002
466 1 1 0.0 14.7595 14.7595 0.0
467 1 1 0.0 14.7595 14.7595 4.2170000000000005
468 1 1 0.0 14.7595 14.7595 8.434000000000001
469 1 1 0.0 14.7595 14.7595 12.651
470 1 1 0.0 14.7595 14.7595 16.868000000000002
471 1 1 0.0 14.7595 18.9765 0.0
472 1 1 0.0 14.7595 18.9765 4.2170000000000005
473 1 1 0.0 14.7595 18.9765 8.434000000000001
474 1 1 0.0 14.7595 18.9765 12.651
475 1 1 0.0 14.7595 18.9765 16.868000000000002
476 1 1 0.0 18.9765 2.1085000000000003 0.0
477 1 1 0.0 18.9765 2.1085000000000003 4.2170000000000005
478 1 1 0.0 18.9765 2.1085000000000003 8.434000000000001
479 1 1 0.0 18.9765 2.1085000000000003 12.651
480 1 1 0.0 18.9765 2.1085000000000003 16.868000000000002
481 1 1 0.0 18.9765 6.3255 0.0
482 1 1 0.0 18.9765 6.3255 4.2170000000000005
483 1 1 0.0 18.9765 6.3255 8.434000000000001
484 1 1 0.0 18.9765 6.3255 12.651
485 1 1 0.0 18.9765 6.3255 16.868000000000002
486 1 1 0.0 18.9765 10.5425 0.0
487 1 1 0.0 18.9765 10.5425 4.2170000000000005
488 1 1 0.0 18.9765 10.5425 8.434000000000001
489 1 1 0.0 18.9765 10.5425 12.651
490 1 1 0.0 18.9765 10.5425 16.868000000000002
491 1 1 0.0 18.9765 14.7595 0.0
492 1 1 0.0 18.9765 14.7595 4.2170000000000005
493 1 1 0.0 18.9765 14.7595 8.434000000000001
494 1 1 0.0 18.9765 14.7595 12.651
495 1 1 0.0 18.9765 14.7595 16.868000000000002
496 1 1 0.0 18.9765 18.9765 0.0
497 1 1 0.0 18.9765 18.9765 4.2170000000000005
498 1 1 0.0 18.9765 18.9765 8.434000000000001
499 1 1 0.0 18.9765 18.9765 12.651
500 1 1 0.0 18.9765 18.9765 16.868000000000002
501 1 2 0.0 0.0 2.1085000000000003 0.0
502 1 2 0.0 0.0 2.1085000000000003 4.2170000000000005
503 1 2 0.0 0.0 2.1085000000000003 8.434000000000001
504 1 2 0.0 0.0 2.1085000000000003 12.651
505 1 2 0.0 0.0 2.1085000000000003 16.868000000000002
506 1 2 0.0 0.0 6.3255 0.0
507 1 2 0.0 0.0 6.3255 4.2170000000000005
508 1 2 0.0 0.0 6.3255 8.434000000000001
509 1 2 0.0 0.0 6.3255 12.651
510 1 2 0.0 0.0 6.3255 16.868000000000002
511 1 2 0.0 0.0 10.5425 0.0
512 1 2 0.0 0.0 10.5425 4.2170000000000005
513 1 2 0.0 0.0 10.5425 8.434000000000001
514 1 2 0.0 0.0 10.5425 12.651
515 1 2 0.0 0.0 10.5425 16.868000000000002
516 1 2 0.0 0.0 14.7595 0.0
517 1 2 0.0 0.0 14.7595 4.2170000000000005
518 1 2 0.0 0.0 14.7595 8.434000000000001
519 1 2 0.0 0.0 14.7595 12.651
520 1 2 0.0 0.0 14.7595 16.868000000000002
521 1 2 0.0 0.0 18.9765 0.0
522 1 2 0.0 0.0 18.9765 4.2170000000000005
523 1 2 0.0 0.0 18.9765 8.434000000000001
524 1 2 0.0 0.0 18.9765 12.651
525 1 2 0.0 0.0 18.9765 16.868000000000002
526 1 2 0.0 4.2170000000000005 2.1085000000000003 0.0
527 1 2 0.0 4.2170000000000005 2.1085000000000003 4.2170000000000005
528 1 2 0.0 4.2170000000000005 2.1085000000000003 8.434000000000001
529 1 2 0.0 4.2170000000000005 2.1085000000000003 12.651
530 1 2 0.0 4.2170000000000005 2.1085000000000003 16.868000000000002
531 1 2 0.0 4.2170000000000005 6.3255 0.0
532 1 2 0.0 4.2170000000000005 6.3255 4.2170000000000005
533 1 2 0.0 4.2170000000000005 6.3255 8.434000000000001
534 1 2 0.0 4.2170000000000005 6.3255 12.651
535 1 2 0.0 4.2170000000000005 6.3255 16.868000000000002
536 1 2 0.0 4.2170000000000005 10.5425 0.0
537 1 2 0.0 4.2170000000000005 10.5425 4.2170000000000005
538 1 2 0.0 4.2170000000000005 10.5425 8.434000000000001
539 1 2 0.0 4.2170000000000005 10.5425 12.651
540 1 2 0.0 4.2170000000000005 10.5425 16.868000000000002
541 1 2 0.0 4.2170000000000005 14.7595 0.0
542 1 2 0.0 4.2170000000000005 14.7595 4.2170000000000005
543 1 2 0.0 4.2170000000000005 14.7595 8.434000000000001
544 1 2 0.0 4.2170000000000005 14.7595 12.651
545 1 2 0.0 4.2170000000000005 14.7595 16.868000000000002
546 1 2 0.0 4.2170000000000005 18.9765 0.0
547 1 2 0.0 4.2170000000000005 18.9765 4.2170000000000005
548 1 2 0.0 4.2170000000000005 18.9765 8.434000000000001
549 1 2 0.0 4.2170000000000005 18.9765 12.651
550 1 2 0.0 4.2170000000000005 18.9765 16.868000000000002
551 1 2 0.0 8.434000000000001 2.1085000000000003 0.0
552 1 2 0.0 8.434000000000001 2.1085000000000003 4.2170000000000005
553 1 2 0.0 8.434000000000001 2.1085000000000003 8.434000000000001
554 1 2 0.0 8.434000000000001 2.1085000000000003 12.651
555 1 2 0.0 8.434000000000001 2.1085000000000003 16.868000000000002
556 1 2 0.0 8.434000000000001 6.3255 0.0
557 1 2 0.0 8.434000000000001 6.3255 4.2170000000000005
558 1 2 0.0 8.434000000000001 6.3255 8.434000000000001
559 1 2 0.0 8.434000000000001 6.3255 12.651
560 1 2 0.0 8.434000000000001 6.3255 16.868000000000002
561 1 2 0.0 8.434000000000001 10.5425 0.0
562 1 2 0.0 8.434000000000001 10.5425 4.2170000000000005
563 1 2 0.0 8.434000000000001 10.5425 8.434000000000001
564 1 2 0.0 8.434000000000001 10.5425 12.651
565 1 2 0.0 8.434000000000001 10.5425 16.868000000000002
566 1 2 0.0 8.434000000000001 14.7595 0.0
567 1 2 0.0 8.434000000000001 14.7595 4.2170000000000005
568 1 2 0.0 8.434000000000001 14.7595 8.434000000000001
569 1 2 0.0 8.434000000000001 14.7595 12.651
570 1 2 0.0 8.434000000000001 14.7595 16.868000000000002
571 1 2 0.0 8.434000000000001 18.9765 0.0
572 1 2 0.0 8.434000000000001 18.9765 4.2170000000000005
573 1 2 0.0 8.434000000000001 18.9765 8.434000000000001
574 1 2 0.0 8.434000000000001 18.9765 12.651
575 1 2 0.0 8.434000000000001 18.9765 16.868000000000002
576 1 2 0.0 12.651 2.1085000000000003 0.0
577 1 2 0.0 12.651 2.1085000000000003 4.2170000000000005
578 1 2 0.0 12.651 2.1085000000000003 8.434000000000001
579 1 2 0.0 12.651 2.1085000000000003 12.651
580 1 2 0.0 12.651 2.1085000000000003 16.868000000000002
581 1 2 0.0 12.651 6.3255 0.0
582 1 2 0.0 12.651 6.3255 4.2170000000000005
583 1 2 0.0 12.651 6.3255 8.434000000000001
584 1 2 0.0 12.651 6.3255 12.651
585 1 2 0.0 12.651 6.3255 16.868000000000002
586 1 2 0.0 12.651 10.5425 0.0
587 1 2 0.0 12.651 10.5425 4.2170000000000005
588 1 2 0.0 12.651 10.5425 8.434000000000001
589 1 2 0.0 12.651 10.5425 12.651
590 1 2 0.0 12.651 10.5425 16.868000000000002
591 1 2 0.0 12.651 14.7595 0.0
592 1 2 0.0 12.651 14.7595 4.2170000000000005
593 1 2 0.0 12.651 14.7595 8.434000000000001
594 1 2 0.0 12.651 14.7595 12.651
595 1 2 0.0 12.651 14.7595 16.868000000000002
596 1 2 0.0 12.651 18.9765 0.0
597 1 2 0.0 12.651 18.9765 4.2170000000000005
598 1 2 0.0 12.651 18.9765 8.434000000000001
599 1 2 0.0 12.651 18.9765 12.651
600 1 2 0.0 12.651 18.9765 16.868000000000002
601 1 2 0.0 16.868000000000002 2.1085000000000003 0.0
602 1 2 0.0 16.868000000000002 2.1085000000000003 4.2170000000000005
603 1 2 0.0 16.868000000000002 2.1085000000000003 8.434000000000001
604 1 2 0.0 16.868000000000002 2.1085000000000003 12.651
605 1 2 0.0 16.868000000000002 2.1085000000000003 16.868000000000002
606 1 2 0.0 16.868000000000002 6.3255 0.0
607 1 2 0.0 16.868000000000002 6.3255 4.2170000000000005
608 1 2 0.0 16.868000000000002 6.3255 8.434000000000001
609 1 2 0.0 16.868000000000002 6.3255 12.651
610 1 2 0.0 16.868000000000002 6.3255 16.868000000000002
611 1 2 0.0 16.868000000000002 10.5425 0.0
612 1 2 0.0 16.868000000000002 10.5425 4.2170000000000005
613 1 2 0.0 16.868000000000002 10.5425 8.434000000000001
614 1 2 0.0 16.868000000000002 10.5425 12.651
615 1 2 0.0 16.868000000000002 10.5425 16.868000000000002
616 1 2 0.0 16.868000000000002 14.7595 0.0
617 1 2 0.0 16.868000000000002 14.7595 4.2170000000000005
618 1 2 0.0 16.868000000000002 14.7595 8.434000000000001
619 1 2 0.0 16.868000000000002 14.7595 12.651
620 1 2 0.0 16.868000000000002 14.7595 16.868000000000002
621 1 2 0.0 16.868000000000002 18.9765 0.0
622 1 2 0.0 16.868000000000002 18.9765 4.2170000000000005
623 1 2 0.0 16.868000000000002 18.9765 8.434000000000001
624 1 2 0.0 16.868000000000002 18.9765 12.651
625 1 2 0.0 16.868000000000002 18.9765 16.868000000000002
626 1 2 0.0 0.0 0.0 2.1085000000000003
627 1 2 0.0 0.0 0.0 6.3255
628 1 2 0.0 0.0 0.0 10.5425
629 1 2 0.0 0.0 0.0 14.7595
630 1 2 0.0 0.0 0.0 18.9765
631 1 2 0.0 0.0 4.2170000000000005 2.1085000000000003