ITEM: TIMESTEP
0
ITEM: NUMBER OF ATOMS
1000
ITEM: BOX BOUNDS xy xz yz pp pp pp
0 21.085 1.29108e-15
0 21.085 1.29108e-15
0 21.085 1.29108e-15
ITEM: ATOMS id type x y z vx vy vz mol 
1 1 0 0 0 0 0 0 1 
2 1 2.58217e-16 2.58217e-16 4.217 0 0 0 1 
3 1 5.16434e-16 5.16434e-16 8.434 0 0 0 1 
4 1 7.7465e-16 7.7465e-16 12.651 0 0 0 1 
5 1 1.03287e-15 1.03287e-15 16.868 0 0 0 1 
6 1 2.58217e-16 4.217 0 0 0 0 1 
7 1 5.16434e-16 4.217 4.217 0 0 0 1 
8 1 7.7465e-16 4.217 8.434 0 0 0 1 
9 1 1.03287e-15 4.217 12.651 0 0 0 1 
10 1 21.085 4.217 16.868 0 0 0 1 
11 1 5.16434e-16 8.434 0 0 0 0 1 
12 1 7.7465e-16 8.434 4.217 0 0 0 1 
13 1 1.03287e-15 8.434 8.434 0 0 0 1 
14 1 21.085 8.434 12.651 0 0 0 1 
15 1 21.085 8.434 16.868 0 0 0 1 
16 1 7.7465e-16 12.651 0 0 0 0 1 
17 1 1.03287e-15 12.651 4.217 0 0 0 1 
18 1 21.085 12.651 8.434 0 0 0 1 
19 1 21.085 12.651 12.651 0 0 0 1 
20 1 21.085 12.651 16.868 0 0 0 1 
21 1 1.03287e-15 16.868 0 0 0 0 1 
22 1 21.085 16.868 4.217 0 0 0 1 
23 1 21.085 16.868 8.434 0 0 0 1 
24 1 21.085 16.868 12.651 0 0 0 1 
25 1 21.085 16.868 16.868 0 0 0 1 
26 1 4.217 0 0 0 0 0 1 
27 1 4.217 2.58217e-16 4.217 0 0 0 1 
28 1 4.217 5.16434e-16 8.434 0 0 0 1 
29 1 4.217 7.7465e-16 12.651 0 0 0 1 
30 1 4.217 1.03287e-15 16.868 0 0 0 1 
31 1 4.217 4.217 0 0 0 0 1 
32 1 4.217 4.217 4.217 0 0 0 1 
33 1 4.217 4.217 8.434 0 0 0 1 
34 1 4.217 4.217 12.651 0 0 0 1 
35 1 4.217 4.217 16.868 0 0 0 1 
36 1 4.217 8.434 0 0 0 0 1 
37 1 4.217 8.434 4.217 0 0 0 1 
38 1 4.217 8.434 8.434 0 0 0 1 
39 1 4.217 8.434 12.651 0 0 0 1 
40 1 4.217 8.434 16.868 0 0 0 1 
41 1 4.217 12.651 0 0 0 0 1 
42 1 4.217 12.651 4.217 0 0 0 1 
43 1 4.217 12.651 8.434 0 0 0 1 
44 1 4.217 12.651 12.651 0 0 0 1 
45 1 4.217 12.651 16.868 0 0 0 1 
46 1 4.217 16.868 0 0 0 0 1 
47 1 4.217 16.868 4.217 0 0 0 1 
48 1 4.217 16.868 8.434 0 0 0 1 
49 1 4.217 16.868 12.651 0 0 0 1 
50 1 4.217 16.868 16.868 0 0 0 1 
51 1 8.434 0 0 0 0 0 1 
52 1 8.434 2.58217e-16 4.217 0 0 0 1 
53 1 8.434 5.16434e-16 8.434 0 0 0 1 
54 1 8.434 7.7465e-16 12.651 0 0 0 1 
55 1 8.434 1.03287e-15 16.868 0 0 0 1 
56 1 8.434 4.217 0 0 0 0 1 
57 1 8.434 4.217 4.217 0 0 0 1 
58 1 8.434 4.217 8.434 0 0 0 1 
59 1 8.434 4.217 12.651 0 0 0 1 
60 1 8.434 4.217 16.868 0 0 0 1 
61 1 8.434 8.434 0 0 0 0 1 
62 1 8.434 8.434 4.217 0 0 0 1 
63 1 8.434 8.434 8.434 0 0 0 1 
64 1 8.434 8.434 12.651 0 0 0 1 
65 1 8.434 8.434 16.868 0 0 0 1 
66 1 8.434 12.651 0 0 0 0 1 
67 1 8.434 12.651 4.217 0 0 0 1 
68 1 8.434 12.651 8.434 0 0 0 1 
69 1 8.434 12.651 12.651 0 0 0 1 
70 1 8.434 12.651 16.868 0 0 0 1 
71 1 8.434 16.868 0 0 0 0 1 
72 1 8.434 16.868 4.217 0 0 0 1 
73 1 8.434 16.868 8.434 0 0 0 1 
74 1 8.434 16.868 12.651 0 0 0 1 
75 1 8.434 16.868 16.868 0 0 0 1 
76 1 12.651 0 0 0 0 0 1 
77 1 12.651 2.58217e-16 4.217 0 0 0 1 
78 1 12.651 5.16434e-16 8.434 0 0 0 1 
79 1 12.651 7.7465e-16 12.651 0 0 0 1 
80 1 12.651 1.03287e-15 16.868 0 0 0 1 
81 1 12.651 4.217 0 0 0 0 1 
82 1 12.651 4.217 4.217 0 0 0 1 
83 1 12.651 4.217 8.434 0 0 0 1 
84 1 12.651 4.217 12.651 0 0 0 1 
85 1 12.651 4.217 16.868 0 0 0 1 
86 1 12.651 8.434 0 0 0 0 1 
87 1 12.651 8.434 4.217 0 0 0 1 
88 1 12.651 8.434 8.434 0 0 0 1 
89 1 12.651 8.434 12.651 0 0 0 1 
90 1 12.651 8.434 16.868 0 0 0 1 
91 1 12.651 12.651 0 0 0 0 1 
92 1 12.651 12.651 4.217 0 0 0 1 
93 1 12.651 12.651 8.434 0 0 0 1 
94 1 12.651 12.651 12.651 0 0 0 1 
95 1 12.651 12.651 16.868 0 0 0 1 
96 1 12.651 16.868 0 0 0 0 1 
97 1 12.651 16.868 4.217 0 0 0 1 
98 1 12.651 16.868 8.434 0 0 0 1 
99 1 12.651 16.868 12.651 0 0 0 1 
100 1 12.651 16.868 16.868 0 0 0 1 
101 1 16.868 0 0 0 0 0 1 
102 1 16.868 2.58217e-16 4.217 0 0 0 1 
103 1 16.868 5.16434e-16 8.434 0 0 0 1 
104 1 16.868 7.7465e-16 12.651 0 0 0 1 
105 1 16.868 1.03287e-15 16.868 0 0 0 1 
106 1 16.868 4.217 0 0 0 0 1 
107 1 16.868 4.217 4.217 0 0 0 1 
108 1 16.868 4.217 8.434 0 0 0 1 
109 1 16.868 4.217 12.651 0 0 0 1 
110 1 16.868 4.217 16.868 0 0 0 1 
111 1 16.868 8.434 0 0 0 0 1 
112 1 16.868 8.434 4.217 0 0 0 1 
113 1 16.868 8.434 8.434 0 0 0 1 
114 1 16.868 8.434 12.651 0 0 0 1 
115 1 16.868 8.434 16.868 0 0 0 1 
116 1 16.868 12.651 0 0 0 0 1 
117 1 16.868 12.651 4.217 0 0 0 1 
118 1 16.868 12.651 8.434 0 0 0 1 
119 1 16.868 12.651 12.651 0 0 0 1 
120 1 16.868 12.651 16.868 0 0 0 1 
121 1 16.868 16.868 0 0 0 0 1 
122 1 16.868 16.868 4.217 0 0 0 1 
123 1 16.868 16.868 8.434 0 0 0 1 
124 1 16.868 16.868 12.651 0 0 0 1 
125 1 16.868 16.868 16.868 0 0 0 1 
126 1 2.58217e-16 2.1085 2.1085 0 0 0 1 
127 1 5.16434e-16 2.1085 6.3255 0 0 0 1 
128 1 7.7465e-16 2.1085 10.5425 0 0 0 1 
129 1 1.03287e-15 2.1085 14.7595 0 0 0 1 
130 1 21.085 2.1085 18.9765 0 0 0 1 
131 1 5.16434e-16 6.3255 2.1085 0 0 0 1 
132 1 7.7465e-16 6.3255 6.3255 0 0 0 1 
133 1 1.03287e-15 6.3255 10.5425 0 0 0 1 
134 1 21.085 6.3255 14.7595 0 0 0 1 
135 1 21.085 6.3255 18.9765 0 0 0 1 
136 1 7.7465e-16 10.5425 2.1085 0 0 0 1 
137 1 1.03287e-15 10.5425 6.3255 0 0 0 1 
138 1 21.085 10.5425 10.5425 0 0 0 1 
139 1 21.085 10.5425 14.7595 0 0 0 1 
140 1 21.085 10.5425 18.9765 0 0 0 1 
141 1 1.03287e-15 14.7595 2.1085 0 0 0 1 
142 1 21.085 14.7595 6.3255 0 0 0 1 
143 1 21.085 14.7595 10.5425 0 0 0 1 
144 1 21.085 14.7595 14.7595 0 0 0 1 
145 1 21.085 14.7595 18.9765 0 0 0 1 
146 1 21.085 18.9765 2.1085 0 0 0 1 
147 1 21.085 18.9765 6.3255 0 0 0 1 
148 1 21.085 18.9765 10.5425 0 0 0 1 
149 1 21.085 18.9765 14.7595 0 0 0 1 
150 1 21.085 18.9765 18.9765 0 0 0 1 
151 1 4.217 2.1085 2.1085 0 0 0 1 
152 1 4.217 2.1085 6.3255 0 0 0 1 
153 1 4.217 2.1085 10.5425 0 0 0 1 
154 1 4.217 2.1085 14.7595 0 0 0 1 
155 1 4.217 2.1085 18.9765 0 0 0 1 
156 1 4.217 6.3255 2.1085 0 0 0 1 
157 1 4.217 6.3255 6.3255 0 0 0 1 
158 1 4.217 6.3255 10.5425 0 0 0 1 
159 1 4.217 6.3255 14.7595 0 0 0 1 
160 1 4.217 6.3255 18.9765 0 0 0 1 
161 1 4.217 10.5425 2.1085 0 0 0 1 
162 1 4.217 10.5425 6.3255 0 0 0 1 
163 1 4.217 10.5425 10.5425 0 0 0 1 
164 1 4.217 10.5425 14.7595 0 0 0 1 
165 1 4.217 10.5425 18.9765 0 0 0 1 
166 1 4.217 14.7595 2.1085 0 0 0 1 
167 1 4.217 14.7595 6.3255 0 0 0 1 
168 1 4.217 14.7595 10.5425 0 0 0 1 
169 1 4.217 14.7595 14.7595 0 0 0 1 
170 1 4.217 14.7595 18.9765 0 0 0 1 
171 1 4.217 18.9765 2.1085 0 0 0 1 
172 1 4.217 18.9765 6.3255 0 0 0 1 
173 1 4.217 18.9765 10.5425 0 0 0 1 
174 1 4.217 18.9765 14.7595 0 0 0 1 
175 1 4.217 18.9765 18.9765 0 0 0 1 
176 1 8.434 2.1085 2.1085 0 0 0 1 
177 1 8.434 2.1085 6.3255 0 0 0 1 
178 1 8.434 2.1085 10.5425 0 0 0 1 
179 1 8.434 2.1085 14.7595 0 0 0 1 
180 1 8.434 2.1085 18.9765 0 0 0 1 
181 1 8.434 6.3255 2.1085 0 0 0 1 
182 1 8.434 6.3255 6.3255 0 0 0 1 
183 1 8.434 6.3255 10.5425 0 0 0 1 
184 1 8.434 6.3255 14.7595 0 0 0 1 
185 1 8.434 6.3255 18.9765 0 0 0 1 
186 1 8.434 10.5425 2.1085 0 0 0 1 
187 1 8.434 10.5425 6.3255 0 0 0 1 
188 1 8.434 10.5425 10.5425 0 0 0 1 
189 1 8.434 10.5425 14.7595 0 0 0 1 
190 1 8.434 10.5425 18.9765 0 0 0 1 
191 1 8.434 14.7595 2.1085 0 0 0 1 
192 1 8.434 14.7595 6.3255 0 0 0 1 
193 1 8.434 14.7595 10.5425 0 0 0 1 
194 1 8.434 14.7595 14.7595 0 0 0 1 
195 1 8.434 14.7595 18.9765 0 0 0 1 
196 1 8.434 18.9765 2.1085 0 0 0 1 
197 1 8.434 18.9765 6.3255 0 0 0 1 
198 1 8.434 18.9765 10.5425 0 0 0 1 
199 1 8.434 18.9765 14.7595 0 0 0 1 
200 1 8.434 18.9765 18.9765 0 0 0 1 
201 1 12.651 2.1085 2.1085 0 0 0 1 
202 1 12.651 2.1085 6.3255 0 0 0 1 
203 1 12.651 2.1085 10.5425 0 0 0 1 
204 1 12.651 2.1085 14.7595 0 0 0 1 
205 1 12.651 2.1085 18.9765 0 0 0 1 
206 1 12.651 6.3255 2.1085 0 0 0 1 
207 1 12.651 6.3255 6.3255 0 0 0 1 
208 1 12.651 6.3255 10.5425 0 0 0 1 
209 1 12.651 6.3255 14.7595 0 0 0 1 
210 1 12.651 6.3255 18.9765 0 0 0 1 
211 1 12.651 10.5425 2.1085 0 0 0 1 
212 1 12.651 10.5425 6.3255 0 0 0 1 
213 1 12.651 10.5425 10.5425 0 0 0 1 
214 1 12.651 10.5425 14.7595 0 0 0 1 
215 1 12.651 10.5425 18.9765 0 0 0 1 
216 1 12.651 14.7595 2.1085 0 0 0 1 
217 1 12.651 14.7595 6.3255 0 0 0 1 
218 1 12.651 14.7595 10.5425 0 0 0 1 
219 1 12.651 14.7595 14.7595 0 0 0 1 
220 1 12.651 14.7595 18.9765 0 0 0 1 
221 1 12.651 18.9765 2.1085 0 0 0 1 
222 1 12.651 18.9765 6.3255 0 0 0 1 
223 1 12.651 18.9765 10.5425 0 0 0 1 
224 1 12.651 18.9765 14.7595 0 0 0 1 
225 1 12.651 18.9765 18.9765 0 0 0 1 
226 1 16.868 2.1085 2.1085 0 0 0 1 
227 1 16.868 2.1085 6.3255 0 0 0 1 
228 1 16.868 2.1085 10.5425 0 0 0 1 
229 1 16.868 2.1085 14.7595 0 0 0 1 
230 1 16.868 2.1085 18.9765 0 0 0 1 
231 1 16.868 6.3255 2.1085 0 0 0 1 
232 1 16.868 6.3255 6.3255 0 0 0 1 
233 1 16.868 6.3255 10.5425 0 0 0 1 
234 1 16.868 6.3255 14.7595 0 0 0 1 
235 1 16.868 6.3255 18.9765 0 0 0 1 
236 1 16.868 10.5425 2.1085 0 0 0 1 
237 1 16.868 10.5425 6.3255 0 0 0 1 
238 1 16.868 10.5425 10.5425 0 0 0 1 
239 1 16.868 10.5425 14.7595 0 0 0 1 
240 1 16.868 10.5425 18.9765 0 0 0 1 
241 1 16.868 14.7595 2.1085 0 0 0 1 
242 1 16.868 14.7595 6.3255 0 0 0 1 
243 1 16.868 14.7595 10.5425 0 0 0 1 
244 1 16.868 14.7595 14.7595 0 0 0 1 
245 1 16.868 14.7595 18.9765 0 0 0 1 
246 1 16.868 18.9765 2.1085 0 0 0 1 
247 1 16.868 18.9765 6.3255 0 0 0 1 
248 1 16.868 18.9765 10.5425 0 0 0 1 
249 1 16.868 18.9765 14.7595 0 0 0 1 
250 1 16.868 18.9765 18.9765 0 0 0 1 
251 1 2.1085 1.29108e-16 2.1085 0 0 0 1 
252 1 2.1085 3.87325e-16 6.3255 0 0 0 1 
253 1 2.1085 6.45542e-16 10.5425 0 0 0 1 
254 1 2.1085 9.03759e-16 14.7595 0 0 0 1 
255 1 2.1085 1.16198e-15 18.9765 0 0 0 1 
256 1 2.1085 4.217 2.1085 0 0 0 1 
257 1 2.1085 4.217 6.3255 0 0 0 1 
258 1 2.1085 4.217 10.5425 0 0 0 1 
259 1 2.1085 4.217 14.7595 0 0 0 1 
260 1 2.1085 4.217 18.9765 0 0 0 1 
261 1 2.1085 8.434 2.1085 0 0 0 1 
262 1 2.1085 8.434 6.3255 0 0 0 1 
263 1 2.1085 8.434 10.5425 0 0 0 1 
264 1 2.1085 8.434 14.7595 0 0 0 1 
265 1 2.1085 8.434 18.9765 0 0 0 1 
266 1 2.1085 12.651 2.1085 0 0 0 1 
267 1 2.1085 12.651 6.3255 0 0 0 1 
268 1 2.1085 12.651 10.5425 0 0 0 1 
269 1 2.1085 12.651 14.7595 0 0 0 1 
270 1 2.1085 12.651 18.9765 0 0 0 1 
271 1 2.1085 16.868 2.1085 0 0 0 1 
272 1 2.1085 16.868 6.3255 0 0 0 1 
273 1 2.1085 16.868 10.5425 0 0 0 1 
274 1 2.1085 16.868 14.7595 0 0 0 1 
275 1 2.1085 16.868 18.9765 0 0 0 1 
276 1 6.3255 1.29108e-16 2.1085 0 0 0 1 
277 1 6.3255 3.87325e-16 6.3255 0 0 0 1 
278 1 6.3255 6.45542e-16 10.5425 0 0 0 1 
279 1 6.3255 9.03759e-16 14.7595 0 0 0 1 
280 1 6.3255 1.16198e-15 18.9765 0 0 0 1 
281 1 6.3255 4.217 2.1085 0 0 0 1 
282 1 6.3255 4.217 6.3255 0 0 0 1 
283 1 6.3255 4.217 10.5425 0 0 0 1 
284 1 6.3255 4.217 14.7595 0 0 0 1 
285 1 6.3255 4.217 18.9765 0 0 0 1 
286 1 6.3255 8.434 2.1085 0 0 0 1 
287 1 6.3255 8.434 6.3255 0 0 0 1 
288 1 6.3255 8.434 10.5425 0 0 0 1 
289 1 6.3255 8.434 14.7595 0 0 0 1 
290 1 6.3255 8.434 18.9765 0 0 0 1 
291 1 6.3255 12.651 2.1085 0 0 0 1 
292 1 6.3255 12.651 6.3255 0 0 0 1 
293 1 6.3255 12.651 10.5425 0 0 0 1 
294 1 6.3255 12.651 14.7595 0 0 0 1 
295 1 6.3255 12.651 18.9765 0 0 0 1 
296 1 6.3255 16.868 2.1085 0 0 0 1 
297 1 6.3255 16.868 6.3255 0 0 0 1 
298 1 6.3255 16.868 10.5425 0 0 0 1 
299 1 6.3255 16.868 14.7595 0 0 0 1 
300 1 6.3255 16.868 18.9765 0 0 0 1 
301 1 10.5425 1.29108e-16 2.1085 0 0 0 1 
302 1 10.5425 3.87325e-16 6.3255 0 0 0 1 
303 1 10.5425 6.45542e-16 10.5425 0 0 0 1 
304 1 10.5425 9.03759e-16 14.7595 0 0 0 1 
305 1 10.5425 1.16198e-15 18.9765 0 0 0 1 
306 1 10.5425 4.217 2.1085 0 0 0 1 
307 1 10.5425 4.217 6.3255 0 0 0 1 
308 1 10.5425 4.217 10.5425 0 0 0 1 
309 1 10.5425 4.217 14.7595 0 0 0 1 
310 1 10.5425 4.217 18.9765 0 0 0 1 
311 1 10.5425 8.434 2.1085 0 0 0 1 
312 1 10.5425 8.434 6.3255 0 0 0 1 
313 1 10.5425 8.434 10.5425 0 0 0 1 
314 1 10.5425 8.434 14.7595 0 0 0 1 
315 1 10.5425 8.434 18.9765 0 0 0 1 
316 1 10.5425 12.651 2.1085 0 0 0 1 
317 1 10.5425 12.651 6.3255 0 0 0 1 
318 1 10.5425 12.651 10.5425 0 0 0 1 
319 1 10.5425 12.651 14.7595 0 0 0 1 
320 1 10.5425 12.651 18.9765 0 0 0 1 
321 1 10.5425 16.868 2.1085 0 0 0 1 
322 1 10.5425 16.868 6.3255 0 0 0 1 
323 1 10.5425 16.868 10.5425 0 0 0 1 
324 1 10.5425 16.868 14.7595 0 0 0 1 
325 1 10.5425 16.868 18.9765 0 0 0 1 
326 1 14.7595 1.29108e-16 2.1085 0 0 0 1 
327 1 14.7595 3.87325e-16 6.3255 0 0 0 1 
328 1 14.7595 6.45542e-16 10.5425 0 0 0 1 
329 1 14.7595 9.03759e-16 14.7595 0 0 0 1 
330 1 14.7595 1.16198e-15 18.9765 0 0 0 1 
331 1 14.7595 4.217 2.1085 0 0 0 1 
332 1 14.7595 4.217 6.3255 0 0 0 1 
333 1 14.7595 4.217 10.5425 0 0 0 1 
334 1 14.7595 4.217 14.7595 0 0 0 1 
335 1 14.7595 4.217 18.9765 0 0 0 1 
336 1 14.7595 8.434 2.1085 0 0 0 1 
337 1 14.7595 8.434 6.3255 0 0 0 1 
338 1 14.7595 8.434 10.5425 0 0 0 1 
339 1 14.7595 8.434 14.7595 0 0 0 1 
340 1 14.7595 8.434 18.9765 0 0 0 1 
341 1 14.7595 12.651 2.1085 0 0 0 1 
342 1 14.7595 12.651 6.3255 0 0 0 1 
343 1 14.7595 12.651 10.5425 0 0 0 1 
344 1 14.7595 12.651 14.7595 0 0 0 1 
345 1 14.7595 12.651 18.9765 0 0 0 1 
346 1 14.7595 16.868 2.1085 0 0 0 1 
347 1 14.7595 16.868 6.3255 0 0 0 1 
348 1 14.7595 16.868 10.5425 0 0 0 1 
349 1 14.7595 16.868 14.7595 0 0 0 1 
350 1 14.7595 16.868 18.9765 0 0 0 1 
351 1 18.9765 1.29108e-16 2.1085 0 0 0 1 
352 1 18.9765 3.87325e-16 6.3255 0 0 0 1 
353 1 18.9765 6.45542e-16 10.5425 0 0 0 1 
354 1 18.9765 9.03759e-16 14.7595 0 0 0 1 
355 1 18.9765 1.16198e-15 18.9765 0 0 0 1 
356 1 18.9765 4.217 2.1085 0 0 0 1 
357 1 18.9765 4.217 6.3255 0 0 0 1 
358 1 18.9765 4.217 10.5425 0 0 0 1 
359 1 18.9765 4.217 14.7595 0 0 0 1 
360 1 18.9765 4.217 18.9765 0 0 0 1 
361 1 18.9765 8.434 2.1085 0 0 0 1 
362 1 18.9765 8.434 6.3255 0 0 0 1 
363 1 18.9765 8.434 10.5425 0 0 0 1 
364 1 18.9765 8.434 14.7595 0 0 0 1 
365 1 18.9765 8.434 18.9765 0 0 0 1 
366 1 18.9765 12.651 2.1085 0 0 0 1 
367 1 18.9765 12.651 6.3255 0 0 0 1 
368 1 18.9765 12.651 10.5425 0 0 0 1 
369 1 18.9765 12.651 14.7595 0 0 0 1 
370 1 18.9765 12.651 18.9765 0 0 0 1 
371 1 18.9765 16.868 2.1085 0 0 0 1 
372 1 18.9765 16.868 6.3255 0 0 0 1 
373 1 18.9765 16.868 10.5425 0 0 0 1 
374 1 18.9765 16.868 14.7595 0 0 0 1 
375 1 18.9765 16.868 18.9765 0 0 0 1 
376 1 2.1085 2.1085 0 0 0 0 1 
377 1 2.1085 2.1085 4.217 0 0 0 1 
378 1 2.1085 2.1085 8.434 0 0 0 1 
379 1 2.1085 2.1085 12.651 0 0 0 1 
380 1 2.1085 2.1085 16.868 0 0 0 1 
381 1 2.1085 6.3255 0 0 0 0 1 
382 1 2.1085 6.3255 4.217 0 0 0 1 
383 1 2.1085 6.3255 8.434 0 0 0 1 
384 1 2.1085 6.3255 12.651 0 0 0 1 
385 1 2.1085 6.3255 16.868 0 0 0 1 
386 1 2.1085 10.5425 0 0 0 0 1 
387 1 2.1085 10.5425 4.217 0 0 0 1 
388 1 2.1085 10.5425 8.434 0 0 0 1 
389 1 2.1085 10.5425 12.651 0 0 0 1 
390 1 2.1085 10.5425 16.868 0 0 0 1 
391 1 2.1085 14.7595 0 0 0 0 1 
392 1 2.1085 14.7595 4.217 0 0 0 1 
393 1 2.1085 14.7595 8.434 0 0 0 1 
394 1 2.1085 14.7595 12.651 0 0 0 1 
395 1 2.1085 14.7595 16.868 0 0 0 1 
396 1 2.1085 18.9765 0 0 0 0 1 
397 1 2.1085 18.9765 4.217 0 0 0 1 
398 1 2.1085 18.9765 8.434 0 0 0 1 
399 1 2.1085 18.9765 12.651 0 0 0 1 
400 1 2.1085 18.9765 16.868 0 0 0 1 
401 1 6.3255 2.1085 0 0 0 0 1 
402 1 6.3255 2.1085 4.217 0 0 0 1 
403 1 6.3255 2.1085 8.434 0 0 0 1 
404 1 6.3255 2.1085 12.651 0 0 0 1 
405 1 6.3255 2.1085 16.868 0 0 0 1 
406 1 6.3255 6.3255 0 0 0 0 1 
407 1 6.3255 6.3255 4.217 0 0 0 1 
408 1 6.3255 6.3255 8.434 0 0 0 1 
409 1 6.3255 6.3255 12.651 0 0 0 1 
410 1 6.3255 6.3255 16.868 0 0 0 1 
411 1 6.3255 10.5425 0 0 0 0 1 
412 1 6.3255 10.5425 4.217 0 0 0 1 
413 1 6.3255 10.5425 8.434 0 0 0 1 
414 1 6.3255 10.5425 12.651 0 0 0 1 
415 1 6.3255 10.5425 16.868 0 0 0 1 
416 1 6.3255 14.7595 0 0 0 0 1 
417 1 6.3255 14.7595 4.217 0 0 0 1 
418 1 6.3255 14.7595 8.434 0 0 0 1 
419 1 6.3255 14.7595 12.651 0 0 0 1 
420 1 6.3255 14.7595 16.868 0 0 0 1 
421 1 6.3255 18.9765 0 0 0 0 1 
422 1 6.3255 18.9765 4.217 0 0 0 1 
423 1 6.3255 18.9765 8.434 0 0 0 1 
424 1 6.3255 18.9765 12.651 0 0 0 1 
425 1 6.3255 18.9765 16.868 0 0 0 1 
426 1 10.5425 2.1085 0 0 0 0 1 
427 1 10.5425 2.1085 4.217 0 0 0 1 
428 1 10.5425 2.1085 8.434 0 0 0 1 
429 1 10.5425 2.1085 12.651 0 0 0 1 
430 1 10.5425 2.1085 16.868 0 0 0 1 
431 1 10.5425 6.3255 0 0 0 0 1 
432 1 10.5425 6.3255 4.217 0 0 0 1 
433 1 10.5425 6.3255 8.434 0 0 0 1 
434 1 10.5425 6.3255 12.651 0 0 0 1 
435 1 10.5425 6.3255 16.868 0 0 0 1 
436 1 10.5425 10.5425 0 0 0 0 1 
437 1 10.5425 10.5425 4.217 0 0 0 1 
438 1 10.5425 10.5425 8.434 0 0 0 1 
439 1 10.5425 10.5425 12.651 0 0 0 1 
440 1 10.5425 10.5425 16.868 0 0 0 1 
441 1 10.5425 14.7595 0 0 0 0 1 
442 1 10.5425 14.7595 4.217 0 0 0 1 
443 1 10.5425 14.7595 8.434 0 0 0 1 
444 1 10.5425 14.7595 12.651 0 0 0 1 
445 1 10.5425 14.7595 16.868 0 0 0 1 
446 1 10.5425 18.9765 0 0 0 0 1 
447 1 10.5425 18.9765 4.217 0 0 0 1 
448 1 10.5425 18.9765 8.434 0 0 0 1 
449 1 10.5425 18.9765 12.651 0 0 0 1 
450 1 10.5425 18.9765 16.868 0 0 0 1 
451 1 14.7595 2.1085 0 0 0 0 1 
452 1 14.7595 2.1085 4.217 0 0 0 1 
453 1 14.7595 2.1085 8.434 0 0 0 1 
454 1 14.7595 2.1085 12.651 0 0 0 1 
455 1 14.7595 2.1085 16.868 0 0 0 1 
456 1 14.7595 6.3255 0 0 0 0 1 
457 1 14.7595 6.3255 4.217 0 0 0 1 
458 1 14.7595 6.3255 8.434 0 0 0 1 
459 1 14.7595 6.3255 12.651 0 0 0 1 
460 1 14.7595 6.3255 16.868 0 0 0 1 
461 1 14.7595 10.5425 0 0 0 0 1 
462 1 14.7595 10.5425 4.217 0 0 0 1 
463 1 14.7595 10.5425 8.434 0 0 0 1 
464 1 14.7595 10.5425 12.651 0 0 0 1 
465 1 14.7595 10.5425 16.868 0 0 0 1 
466 1 14.7595 14.7595 0 0 0 0 1 
467 1 14.7595 14.7595 4.217 0 0 0 1 
468 1 14.7595 14.7595 8.434 0 0 0 1 
469 1 14.7595 14.7595 12.651 0 0 0 1 
470 1 14.7595 14.7595 16.868 0 0 0 1 
471 1 14.7595 18.9765 0 0 0 0 1 
472 1 14.7595 18.9765 4.217 0 0 0 1 
473 1 14.7595 18.9765 8.434 0 0 0 1 
474 1 14.7595 18.9765 12.651 0 0 0 1 
475 1 14.7595 18.9765 16.868 0 0 0 1 
476 1 18.9765 2.1085 0 0 0 0 1 
477 1 18.9765 2.1085 4.217 0 0 0 1 
478 1 18.9765 2.1085 8.434 0 0 0 1 
479 1 18.9765 2.1085 12.651 0 0 0 1 
480 1 18.9765 2.1085 16.868 0 0 0 1 
481 1 18.9765 6.3255 0 0 0 0 1 
482 1 18.9765 6.3255 4.217 0 0 0 1 
483 1 18.9765 6.3255 8.434 0 0 0 1 
484 1 18.9765 6.3255 12.651 0 0 0 1 
485 1 18.9765 6.3255 16.868 0 0 0 1 
486 1 18.9765 10.5425 0 0 0 0 1 
487 1 18.9765 10.5425 4.217 0 0 0 1 
488 1 18.9765 10.5425 8.434 0 0 0 1 
489 1 18.9765 10.5425 12.651 0 0 0 1 
490 1 18.9765 10.5425 16.868 0 0 0 1 
491 1 18.9765 14.7595 0 0 0 0 1 
492 1 18.9765 14.7595 4.217 0 0 0 1 
493 1 18.9765 14.7595 8.434 0 0 0 1 
494 1 18.9765 14.7595 12.651 0 0 0 1 
495 1 18.9765 14.7595 16.868 0 0 0 1 
496 1 18.9765 18.9765 0 0 0 0 1 
497 1 18.9765 18.9765 4.217 0 0 0 1 
498 1 18.9765 18.9765 8.434 0 0 0 1 
499 1 18.9765 18.9765 12.651 0 0 0 1 
500 1 18.9765 18.9765 16.868 0 0 0 1 
501 2 1.29108e-16 2.1085 0 0 0 0 1 
502 2 3.87325e-16 2.1085 4.217 0 0 0 1 
503 2 6.45542e-16 2.1085 8.434 0 0 0 1 
504 2 9.03759e-16 2.1085 12.651 0 0 0 1 
505 2 1.16198e-15 2.1085 16.868 0 0 0 1 
506 2 3.87325e-16 6.3255 0 0 0 0 1 
507 2 6.45542e-16 6.3255 4.217 0 0 0 1 
508 2 9.03759e-16 6.3255 8.434 0 0 0 1 
509 2 1.16198e-15 6.3255 12.651 0 0 0 1 
510 2 21.085 6.3255 16.868 0 0 0 1 
511 2 6.45542e-16 10.5425 0 0 0 0 1 
512 2 9.03759e-16 10.5425 4.217 0 0 0 1 
513 2 1.16198e-15 10.5425 8.434 0 0 0 1 
514 2 21.085 10.5425 12.651 0 0 0 1 
515 2 21.085 10.5425 16.868 0 0 0 1 
516 2 9.03759e-16 14.7595 0 0 0 0 1 
517 2 1.16198e-15 14.7595 4.217 0 0 0 1 
518 2 21.085 14.7595 8.434 0 0 0 1 
519 2 21.085 14.7595 12.651 0 0 0 1 
520 2 21.085 14.7595 16.868 0 0 0 1 
521 2 1.16198e-15 18.9765 0 0 0 0 1 
522 2 21.085 18.9765 4.217 0 0 0 1 
523 2 21.085 18.9765 8.434 0 0 0 1 
524 2 21.085 18.9765 12.651 0 0 0 1 
525 2 21.085 18.9765 16.868 0 0 0 1 
526 2 4.217 2.1085 0 0 0 0 1 
527 2 4.217 2.1085 4.217 0 0 0 1 
528 2 4.217 2.1085 8.434 0 0 0 1 
529 2 4.217 2.1085 12.651 0 0 0 1 
530 2 4.217 2.1085 16.868 0 0 0 1 
531 2 4.217 6.3255 0 0 0 0 1 
532 2 4.217 6.3255 4.217 0 0 0 1 
533 2 4.217 6.3255 8.434 0 0 0 1 
534 2 4.217 6.3255 12.651 0 0 0 1 
535 2 4.217 6.3255 16.868 0 0 0 1 
536 2 4.217 10.5425 0 0 0 0 1 
537 2 4.217 10.5425 4.217 0 0 0 1 
538 2 4.217 10.5425 8.434 0 0 0 1 
539 2 4.217 10.5425 12.651 0 0 0 1 
540 2 4.217 10.5425 16.868 0 0 0 1 
541 2 4.217 14.7595 0 0 0 0 1 
542 2 4.217 14.7595 4.217 0 0 0 1 
543 2 4.217 14.7595 8.434 0 0 0 1 
544 2 4.217 14.7595 12.651 0 0 0 1 
545 2 4.217 14.7595 16.868 0 0 0 1 
546 2 4.217 18.9765 0 0 0 0 1 
547 2 4.217 18.9765 4.217 0 0 0 1 
548 2 4.217 18.9765 8.434 0 0 0 1 
549 2 4.217 18.9765 12.651 0 0 0 1 
550 2 4.217 18.9765 16.868 0 0 0 1 
551 2 8.434 2.1085 0 0 0 0 1 
552 2 8.434 2.1085 4.217 0 0 0 1 
553 2 8.434 2.1085 8.434 0 0 0 1 
554 2 8.434 2.1085 12.651 0 0 0 1 
555 2 8.434 2.1085 16.868 0 0 0 1 
556 2 8.434 6.3255 0 0 0 0 1 
557 2 8.434 6.3255 4.217 0 0 0 1 
558 2 8.434 6.3255 8.434 0 0 0 1 
559 2 8.434 6.3255 12.651 0 0 0 1 
560 2 8.434 6.3255 16.868 0 0 0 1 
561 2 8.434 10.5425 0 0 0 0 1 
562 2 8.434 10.5425 4.217 0 0 0 1 
563 2 8.434 10.5425 8.434 0 0 0 1 
564 2 8.434 10.5425 12.651 0 0 0 1 
565 2 8.434 10.5425 16.868 0 0 0 1 
566 2 8.434 14.7595 0 0 0 0 1 
567 2 8.434 14.7595 4.217 0 0 0 1 
568 2 8.434 14.7595 8.434 0 0 0 1 
569 2 8.434 14.7595 12.651 0 0 0 1 
570 2 8.434 14.7595 16.868 0 0 0 1 
571 2 8.434 18.9765 0 0 0 0 1 
572 2 8.434 18.9765 4.217 0 0 0 1 
573 2 8.434 18.9765 8.434 0 0 0 1 
574 2 8.434 18.9765 12.651 0 0 0 1 
575 2 8.434 18.9765 16.868 0 0 0 1 
576 2 12.651 2.1085 0 0 0 0 1 
577 2 12.651 2.1085 4.217 0 0 0 1 
578 2 12.651 2.1085 8.434 0 0 0 1 
579 2 12.651 2.1085 12.651 0 0 0 1 
580 2 12.651 2.1085 16.868 0 0 0 1 
581 2 12.651 6.3255 0 0 0 0 1 
582 2 12.651 6.3255 4.217 0 0 0 1 
583 2 12.651 6.3255 8.434 0 0 0 1 
584 2 12.651 6.3255 12.651 0 0 0 1 
585 2 12.651 6.3255 16.868 0 0 0 1 
586 2 12.651 10.5425 0 0 0 0 1 
587 2 12.651 10.5425 4.217 0 0 0 1 
588 2 12.651 10.5425 8.434 0 0 0 1 
589 2 12.651 10.5425 12.651 0 0 0 1 
590 2 12.651 10.5425 16.868 0 0 0 1 
591 2 12.651 14.7595 0 0 0 0 1 
592 2 12.651 14.7595 4.217 0 0 0 1 
593 2 12.651 14.7595 8.434 0 0 0 1 
594 2 12.651 14.7595 12.651 0 0 0 1 
595 2 12.651 14.7595 16.868 0 0 0 1 
596 2 12.651 18.9765 0 0 0 0 1 
597 2 12.651 18.9765 4.217 0 0 0 1 
598 2 12.651 18.9765 8.434 0 0 0 1 
599 2 12.651 18.9765 12.651 0 0 0 1 
600 2 12.651 18.9765 16.868 0 0 0 1 
601 2 16.868 2.1085 0 0 0 0 1 
602 2 16.868 2.1085 4.217 0 0 0 1 
603 2 16.868 2.1085 8.434 0 0 0 1 
604 2 16.868 2.1085 12.651 0 0 0 1 
605 2 16.868 2.1085 16.868 0 0 0 1 
606 2 16.868 6.3255 0 0 0 0 1 
607 2 16.868 6.3255 4.217 0 0 0 1 
608 2 16.868 6.3255 8.434 0 0 0 1 
609 2 16.868 6.3255 12.651 0 0 0 1 
610 2 16.868 6.3255 16.868 0 0 0 1 
611 2 16.868 10.5425 0 0 0 0 1 
612 2 16.868 10.5425 4.217 0 0 0 1 
613 2 16.868 10.5425 8.434 0 0 0 1 
614 2 16.868 10.5425 12.651 0 0 0 1 
615 2 16.868 10.5425 16.868 0 0 0 1 
616 2 16.868 14.7595 0 0 0 0 1 
617 2 16.868 14.7595 4.217 0 0 0 1 
618 2 16.868 14.7595 8.434 0 0 0 1 
619 2 16.868 14.7595 12.651 0 0 0 1 
620 2 16.868 14.7595 16.868 0 0 0 1 
621 2 16.868 18.9765 0 0 0 0 1 
622 2 16.868 18.9765 4.217 0 0 0 1 
623 2 16.868 18.9765 8.434 0 0 0 1 
624 2 16.868 18.9765 12.651 0 0 0 1 
625 2 16.868 18.9765 16.868 0 0 0 1 
626 2 1.29108e-16 1.29108e-16 2.1085 0 0 0 1 
627 2 3.87325e-16 3.87325e-16 6.3255 0 0 0 1 
628 2 6.45542e-16 6.45542e-16 10.5425 0 0 0 1 
629 2 9.03759e-16 9.03759e-16 14.7595 0 0 0 1 
630 2 1.16198e-15 1.16198e-15 18.9765 0 0 0 1 
631 2 3.87325e-16 4.217 2.1085 0 0 0 1 
632 2 6.45542e-16 4.217 6.3255 0 0 0 1 
633 2 9.03759e-16 4.217 10.5425 0 0 0 1 
634 2 1.16198e-15 4.217 14.7595 0 0 0 1 
635 2 21.085 4.217 18.9765 0 0 0 1 
636 2 6.45542e-16 8.434 2.1085 0 0 0 1 
637 2 9.03759e-16 8.434 6.3255 0 0 0 1 
638 2 1.16198e-15 8.434 10.5425 0 0 0 1 
639 2 21.085 8.434 14.7595 0 0 0 1 
640 2 21.085 8.434 18.9765 0 0 0 1 
641 2 9.03759e-16 12.651 2.1085 0 0 0 1 
642 2 1.16198e-15 12.651 6.3255 0 0 0 1 
643 2 21.085 12.651 10.5425 0 0 0 1 
644 2 21.085 12.651 14.7595 0 0 0 1 
645 2 21.085 12.651 18.9765 0 0 0 1 
646 2 1.16198e-15 16.868 2.1085 0 0 0 1 
647 2 21.085 16.868 6.3255 0 0 0 1 
648 2 21.085 16.868 10.5425 0 0 0 1 
649 2 21.085 16.868 14.7595 0 0 0 1 
650 2 21.085 16.868 18.9765 0 0 0 1 
651 2 4.217 1.29108e-16 2.1085 0 0 0 1 
652 2 4.217 3.87325e-16 6.3255 0 0 0 1 
653 2 4.217 6.45542e-16 10.5425 0 0 0 1 
654 2 4.217 9.03759e-16 14.7595 0 0 0 1 
655 2 4.217 1.16198e-15 18.9765 0 0 0 1 
656 2 4.217 4.217 2.1085 0 0 0 1 
657 2 4.217 4.217 6.3255 0 0 0 1 
658 2 4.217 4.217 10.5425 0 0 0 1 
659 2 4.217 4.217 14.7595 0 0 0 1 
660 2 4.217 4.217 18.9765 0 0 0 1 
661 2 4.217 8.434 2.1085 0 0 0 1 
662 2 4.217 8.434 6.3255 0 0 0 1 
663 2 4.217 8.434 10.5425 0 0 0 1 
664 2 4.217 8.434 14.7595 0 0 0 1 
665 2 4.217 8.434 18.9765 0 0 0 1 
666 2 4.217 12.651 2.1085 0 0 0 1 
667 2 4.217 12.651 6.3255 0 0 0 1 
668 2 4.217 12.651 10.5425 0 0 0 1 
669 2 4.217 12.651 14.7595 0 0 0 1 
670 2 4.217 12.651 18.9765 0 0 0 1 
671 2 4.217 16.868 2.1085 0 0 0 1 
672 2 4.217 16.868 6.3255 0 0 0 1 
673 2 4.217 16.868 10.5425 0 0 0 1 
674 2 4.217 16.868 14.7595 0 0 0 1 
675 2 4.217 16.868 18.9765 0 0 0 1 
676 2 8.434 1.29108e-16 2.1085 0 0 0 1 
677 2 8.434 3.87325e-16 6.3255 0 0 0 1 
678 2 8.434 6.45542e-16 10.5425 0 0 0 1 
679 2 8.434 9.03759e-16 14.7595 0 0 0 1 
680 2 8.434 1.16198e-15 18.9765 0 0 0 1 
681 2 8.434 4.217 2.1085 0 0 0 1 
682 2 8.434 4.217 6.3255 0 0 0 1 
683 2 8.434 4.217 10.5425 0 0 0 1 
684 2 8.434 4.217 14.7595 0 0 0 1 
685 2 8.434 4.217 18.9765 0 0 0 1 
686 2 8.434 8.434 2.1085 0 0 0 1 
687 2 8.434 8.434 6.3255 0 0 0 1 
688 2 8.434 8.434 10.5425 0 0 0 1 
689 2 8.434 8.434 14.7595 0 0 0 1 
690 2 8.434 8.434 18.9765 0 0 0 1 
691 2 8.434 12.651 2.1085 0 0 0 1 
692 2 8.434 12.651 6.3255 0 0 0 1 
693 2 8.434 12.651 10.5425 0 0 0 1 
694 2 8.434 12.651 14.7595 0 0 0 1 
695 2 8.434 12.651 18.9765 0 0 0 1 
696 2 8.434 16.868 2.1085 0 0 0 1 
697 2 8.434 16.868 6.3255 0 0 0 1 
698 2 8.434 16.868 10.5425 0 0 0 1 
699 2 8.434 16.868 14.7595 0 0 0 1 
700 2 8.434 16.868 18.9765 0 0 0 1 
701 2 12.651 1.29108e-16 2.1085 0 0 0 1 
702 2 12.651 3.87325e-16 6.3255 0 0 0 1 
703 2 12.651 6.45542e-16 10.5425 0 0 0 1 
704 2 12.651 9.03759e-16 14.7595 0 0 0 1 
705 2 12.651 1.16198e-15 18.9765 0 0 0 1 
706 2 12.651 4.217 2.1085 0 0 0 1 
707 2 12.651 4.217 6.3255 0 0 0 1 
708 2 12.651 4.217 10.5425 0 0 0 1 
709 2 12.651 4.217 14.7595 0 0 0 1 
710 2 12.651 4.217 18.9765 0 0 0 1 
711 2 12.651 8.434 2.1085 0 0 0 1 
712 2 12.651 8.434 6.3255 0 0 0 1 
713 2 12.651 8.434 10.5425 0 0 0 1 
714 2 12.651 8.434 14.7595 0 0 0 1 
715 2 12.651 8.434 18.9765 0 0 0 1 
716 2 12.651 12.651 2.1085 0 0 0 1 
717 2 12.651 12.651 6.3255 0 0 0 1 
718 2 12.651 12.651 10.5425 0 0 0 1 
719 2 12.651 12.651 14.7595 0 0 0 1 
720 2 12.651 12.651 18.9765 0 0 0 1 
721 2 12.651 16.868 2.1085 0 0 0 1 
722 2 12.651 16.868 6.3255 0 0 0 1 
723 2 12.651 16.868 10.5425 0 0 0 1 
724 2 12.651 16.868 14.7595 0 0 0 1 
725 2 12.651 16.868 18.9765 0 0 0 1 
726 2 16.868 1.29108e-16 2.1085 0 0 0 1 
727 2 16.868 3.87325e-16 6.3255 0 0 0 1 
728 2 16.868 6.45542e-16 10.5425 0 0 0 1 
729 2 16.868 9.03759e-16 14.7595 0 0 0 1 
730 2 16.868 1.16198e-15 18.9765 0 0 0 1 
731 2 16.868 4.217 2.1085 0 0 0 1 
732 2 16.868 4.217 6.3255 0 0 0 1 
733 2 16.868 4.217 10.5425 0 0 0 1 
734 2 16.868 4.217 14.7595 0 0 0 1 
735 2 16.868 4.217 18.9765 0 0 0 1 
736 2 16.868 8.434 2.1085 0 0 0 1 
737 2 16.868 8.434 6.3255 0 0 0 1 
738 2 16.868 8.434 10.5425 0 0 0 1 
739 2 16.868 8.434 14.7595 0 0 0 1 
740 2 16.868 8.434 18.9765 0 0 0 1 
741 2 16.868 12.651 2.1085 0 0 0 1 
742 2 16.868 12.651 6.3255 0 0 0 1 
743 2 16.868 12.651 10.5425 0 0 0 1 
744 2 16.868 12.651 14.7595 0 0 0 1 
745 2 16.868 12.651 18.9765 0 0 0 1 
746 2 16.868 16.868 2.1085 0 0 0 1 
747 2 16.868 16.868 6.3255 0 0 0 1 
748 2 16.868 16.868 10.5425 0 0 0 1 
749 2 16.868 16.868 14.7595 0 0 0 1 
750 2 16.868 16.868 18.9765 0 0 0 1 
751 2 2.1085 2.1085 2.1085 0 0 0 1 
752 2 2.1085 2.1085 6.3255 0 0 0 1 
753 2 2.1085 2.1085 10.5425 0 0 0 1 
754 2 2.1085 2.1085 14.7595 0 0 0 1 
755 2 2.1085 2.1085 18.9765 0 0 0 1 
756 2 2.1085 6.3255 2.1085 0 0 0 1 
757 2 2.1085 6.3255 6.3255 0 0 0 1 
758 2 2.1085 6.3255 10.5425 0 0 0 1 
759 2 2.1085 6.3255 14.7595 0 0 0 1 
760 2 2.1085 6.3255 18.9765 0 0 0 1 
761 2 2.1085 10.5425 2.1085 0 0 0 1 
762 2 2.1085 10.5425 6.3255 0 0 0 1 
763 2 2.1085 10.5425 10.5425 0 0 0 1 
764 2 2.1085 10.5425 14.7595 0 0 0 1 
765 2 2.1085 10.5425 18.9765 0 0 0 1 
766 2 2.1085 14.7595 2.1085 0 0 0 1 
767 2 2.1085 14.7595 6.3255 0 0 0 1 
768 2 2.1085 14.7595 10.5425 0 0 0 1 
769 2 2.1085 14.7595 14.7595 0 0 0 1 
770 2 2.1085 14.7595 18.9765 0 0 0 1 
771 2 2.1085 18.9765 2.1085 0 0 0 1 
772 2 2.1085 18.9765 6.3255 0 0 0 1 
773 2 2.1085 18.9765 10.5425 0 0 0 1 
774 2 2.1085 18.9765 14.7595 0 0 0 1 
775 2 2.1085 18.9765 18.9765 0 0 0 1 
776 2 6.3255 2.1085 2.1085 0 0 0 1 
777 2 6.3255 2.1085 6.3255 0 0 0 1 
778 2 6.3255 2.1085 10.5425 0 0 0 1 
779 2 6.3255 2.1085 14.7595 0 0 0 1 
780 2 6.3255 2.1085 18.9765 0 0 0 1 
781 2 6.3255 6.3255 2.1085 0 0 0 1 
782 2 6.3255 6.3255 6.3255 0 0 0 1 
783 2 6.3255 6.3255 10.5425 0 0 0 1 
784 2 6.3255 6.3255 14.7595 0 0 0 1 
785 2 6.3255 6.3255 18.9765 0 0 0 1 
786 2 6.3255 10.5425 2.1085 0 0 0 1 
787 2 6.3255 10.5425 6.3255 0 0 0 1 
788 2 6.3255 10.5425 10.5425 0 0 0 1 
789 2 6.3255 10.5425 14.7595 0 0 0 1 
790 2 6.3255 10.5425 18.9765 0 0 0 1 
791 2 6.3255 14.7595 2.1085 0 0 0 1 
792 2 6.3255 14.7595 6.3255 0 0 0 1 
793 2 6.3255 14.7595 10.5425 0 0 0 1 
794 2 6.3255 14.7595 14.7595 0 0 0 1 
795 2 6.3255 14.7595 18.9765 0 0 0 1 
796 2 6.3255 18.9765 2.1085 0 0 0 1 
797 2 6.3255 18.9765 6.3255 0 0 0 1 
798 2 6.3255 18.9765 10.5425 0 0 0 1 
799 2 6.3255 18.9765 14.7595 0 0 0 1 
800 2 6.3255 18.9765 18.9765 0 0 0 1 
801 2 10.5425 2.1085 2.1085 0 0 0 1 
802 2 10.5425 2.1085 6.3255 0 0 0 1 
803 2 10.5425 2.1085 10.5425 0 0 0 1 
804 2 10.5425 2.1085 14.7595 0 0 0 1 
805 2 10.5425 2.1085 18.9765 0 0 0 1 
806 2 10.5425 6.3255 2.1085 0 0 0 1 
807 2 10.5425 6.3255 6.3255 0 0 0 1 
808 2 10.5425 6.3255 10.5425 0 0 0 1 
809 2 10.5425 6.3255 14.7595 0 0 0 1 
810 2 10.5425 6.3255 18.9765 0 0 0 1 
811 2 10.5425 10.5425 2.1085 0 0 0 1 
812 2 10.5425 10.5425 6.3255 0 0 0 1 
813 2 10.5425 10.5425 10.5425 0 0 0 1 
814 2 10.5425 10.5425 14.7595 0 0 0 1 
815 2 10.5425 10.5425 18.9765 0 0 0 1 
816 2 10.5425 14.7595 2.1085 0 0 0 1 
817 2 10.5425 14.7595 6.3255 0 0 0 1 
818 2 10.5425 14.7595 10.5425 0 0 0 1 
819 2 10.5425 14.7595 14.7595 0 0 0 1 
820 2 10.5425 14.7595 18.9765 0 0 0 1 