<?xml version="1.0" encoding="ISO-8859-1"?>
<modeling>
 <generator>
  <i name="program" type="string">vasp </i>
  <i name="version" type="string">5.3.5  </i>
  <i name="subversion" type="string">31Mar14 (build Oct 07 2015 14:20:14) complex                          parallel </i>
  <i name="platform" type="string">LinuxIFC </i>
  <i name="date" type="string">2017 03 10 </i>
  <i name="time" type="string">14:44:30 </i>
 </generator>
 <incar>
  <i type="string" name="PREC">accurate</i>
  <i type="string" name="ALGO"> Normal</i>
  <i type="int" name="ISPIN">     2</i>
  <i type="int" name="ICHARG">     0</i>
  <i type="int" name="NELM">   100</i>
  <i type="int" name="IBRION">    -1</i>
  <i name="EDIFF">      0.00000001</i>
  <i type="int" name="NSW">     0</i>
  <i type="int" name="ISIF">     3</i>
  <i name="ENCUT">    700.00000000</i>
  <v name="MAGMOM">      0.60000000      0.60000000</v>
  <i type="string" name="LREAL"> Auto</i>
  <i type="int" name="ISMEAR">    -5</i>
  <i name="SIGMA">      0.05000000</i>
  <i type="logical" name="LWAVE"> F  </i>
  <i type="logical" name="LCHARG"> T  </i>
  <i type="logical" name="LVHAR"> T  </i>
  <i type="logical" name="LORBIT"> F  </i>
  <i type="logical" name="LAECHG"> T  </i>
  <i type="int" name="NELM">   100</i>
 </incar>
 <kpoints>
  <generation param="Gamma">
   <v type="int" name="divisions">       9        9        9 </v>
   <v name="usershift">      0.00000000       0.00000000       0.00000000 </v>
   <v name="genvec1">      0.11111111       0.00000000       0.00000000 </v>
   <v name="genvec2">      0.00000000       0.11111111       0.00000000 </v>
   <v name="genvec3">      0.00000000       0.00000000       0.11111111 </v>
   <v name="shift">      0.00000000       0.00000000       0.00000000 </v>
  </generation>
  <varray name="kpointlist" >
   <v>       0.00000000       0.00000000       0.00000000 </v>
   <v>       0.11111111       0.00000000       0.00000000 </v>
   <v>       0.22222222       0.00000000       0.00000000 </v>
   <v>       0.33333333       0.00000000       0.00000000 </v>
   <v>       0.44444444       0.00000000       0.00000000 </v>
   <v>       0.11111111       0.11111111       0.00000000 </v>
   <v>       0.22222222       0.11111111       0.00000000 </v>
   <v>       0.33333333       0.11111111       0.00000000 </v>
   <v>       0.44444444       0.11111111       0.00000000 </v>
   <v>      -0.44444444       0.11111111       0.00000000 </v>
   <v>      -0.33333333       0.11111111       0.00000000 </v>
   <v>      -0.22222222       0.11111111       0.00000000 </v>
   <v>      -0.11111111       0.11111111       0.00000000 </v>
   <v>       0.22222222       0.22222222       0.00000000 </v>
   <v>       0.33333333       0.22222222       0.00000000 </v>
   <v>       0.44444444       0.22222222       0.00000000 </v>
   <v>      -0.44444444       0.22222222       0.00000000 </v>
   <v>      -0.33333333       0.22222222       0.00000000 </v>
   <v>      -0.22222222       0.22222222       0.00000000 </v>
   <v>       0.33333333       0.33333333       0.00000000 </v>
   <v>       0.44444444       0.33333333       0.00000000 </v>
   <v>      -0.44444444       0.33333333       0.00000000 </v>
   <v>      -0.33333333       0.33333333       0.00000000 </v>
   <v>       0.44444444       0.44444444       0.00000000 </v>
   <v>      -0.44444444       0.44444444       0.00000000 </v>
   <v>       0.33333333       0.22222222       0.11111111 </v>
   <v>       0.44444444       0.22222222       0.11111111 </v>
   <v>      -0.44444444       0.22222222       0.11111111 </v>
   <v>       0.44444444       0.33333333       0.11111111 </v>
   <v>      -0.44444444       0.33333333       0.11111111 </v>
   <v>      -0.33333333       0.33333333       0.11111111 </v>
   <v>      -0.22222222       0.33333333       0.11111111 </v>
   <v>      -0.44444444       0.44444444       0.11111111 </v>
   <v>      -0.33333333       0.44444444       0.11111111 </v>
   <v>      -0.33333333       0.44444444       0.22222222 </v>
  </varray>
  <varray name="weights" >
   <v>       0.00137174 </v>
   <v>       0.01097394 </v>
   <v>       0.01097394 </v>
   <v>       0.01097394 </v>
   <v>       0.01097394 </v>
   <v>       0.00823045 </v>
   <v>       0.03292181 </v>
   <v>       0.03292181 </v>
   <v>       0.03292181 </v>
   <v>       0.03292181 </v>
   <v>       0.03292181 </v>
   <v>       0.03292181 </v>
   <v>       0.01646091 </v>
   <v>       0.00823045 </v>
   <v>       0.03292181 </v>
   <v>       0.03292181 </v>
   <v>       0.03292181 </v>
   <v>       0.03292181 </v>
   <v>       0.01646091 </v>
   <v>       0.00823045 </v>
   <v>       0.03292181 </v>
   <v>       0.03292181 </v>
   <v>       0.01646091 </v>
   <v>       0.00823045 </v>
   <v>       0.01646091 </v>
   <v>       0.03292181 </v>
   <v>       0.06584362 </v>
   <v>       0.06584362 </v>
   <v>       0.03292181 </v>
   <v>       0.06584362 </v>
   <v>       0.06584362 </v>
   <v>       0.03292181 </v>
   <v>       0.03292181 </v>
   <v>       0.03292181 </v>
   <v>       0.03292181 </v>
  </varray>
  <varray name="tetrahedronlist"  type="int" >
   <v type="int" >       24        1        2        2        6 </v>
   <v type="int" >       48        2        6        7       13 </v>
   <v type="int" >       48        2        3        7       13 </v>
   <v type="int" >       24        2        2        6       13 </v>
   <v type="int" >       48        3        7        8       12 </v>
   <v type="int" >       48        3        4        8       12 </v>
   <v type="int" >       48        3        7       12       13 </v>
   <v type="int" >       48        4        8        9       11 </v>
   <v type="int" >       48        4        5        9       11 </v>
   <v type="int" >       48        4        8       11       12 </v>
   <v type="int" >       48        5        9       10       10 </v>
   <v type="int" >       24        5        5       10       10 </v>
   <v type="int" >       48        5        9       10       11 </v>
   <v type="int" >       24        6        7        7       14 </v>
   <v type="int" >       24        6        7        7       13 </v>
   <v type="int" >       48        7       14       15       26 </v>
   <v type="int" >       48        7        8       15       26 </v>
   <v type="int" >       48        7        8       12       26 </v>
   <v type="int" >       24        7        7       14       26 </v>
   <v type="int" >       24        7        7       13       26 </v>
   <v type="int" >       48        7       12       13       26 </v>
   <v type="int" >       48        8       15       16       27 </v>
   <v type="int" >       48        8        9       16       27 </v>
   <v type="int" >       48        8        9       11       27 </v>
   <v type="int" >       48        8       15       26       27 </v>
   <v type="int" >       48        8       12       26       27 </v>
   <v type="int" >       48        8       11       12       27 </v>
   <v type="int" >       48        9       16       17       28 </v>
   <v type="int" >       48        9       10       17       28 </v>
   <v type="int" >       48        9       10       10       28 </v>
   <v type="int" >       48        9       16       27       28 </v>
   <v type="int" >       48        9       11       27       28 </v>
   <v type="int" >       48        9       10       11       28 </v>
   <v type="int" >       48       10       17       18       28 </v>
   <v type="int" >       48       10       11       18       28 </v>
   <v type="int" >       48       10       17       28       28 </v>
   <v type="int" >       24       10       10       28       28 </v>
   <v type="int" >       48       11       18       19       27 </v>
   <v type="int" >       48       11       12       19       27 </v>
   <v type="int" >       48       11       18       27       28 </v>
   <v type="int" >       24       12       12       19       26 </v>
   <v type="int" >       24       12       12       13       26 </v>
   <v type="int" >       48       12       19       26       27 </v>
   <v type="int" >       24       14       15       15       20 </v>
   <v type="int" >       24       14       15       15       26 </v>
   <v type="int" >       48       15       20       21       29 </v>
   <v type="int" >       48       15       16       21       29 </v>
   <v type="int" >       48       15       16       27       29 </v>
   <v type="int" >       24       15       15       20       29 </v>
   <v type="int" >       24       15       15       26       29 </v>
   <v type="int" >       48       15       26       27       29 </v>
   <v type="int" >       48       16       21       22       30 </v>
   <v type="int" >       48       16       17       22       30 </v>
   <v type="int" >       48       16       17       28       30 </v>
   <v type="int" >       48       16       21       29       30 </v>
   <v type="int" >       48       16       27       29       30 </v>
   <v type="int" >       48       16       27       28       30 </v>
   <v type="int" >       48       17       22       23       31 </v>
   <v type="int" >       48       17       18       23       31 </v>
   <v type="int" >       48       17       18       28       31 </v>
   <v type="int" >       48       17       22       30       31 </v>
   <v type="int" >       48       17       28       30       31 </v>
   <v type="int" >       48       17       28       28       31 </v>
   <v type="int" >       24       18       18       23       32 </v>
   <v type="int" >       24       18       18       19       32 </v>
   <v type="int" >       48       18       19       27       32 </v>
   <v type="int" >       48       18       23       31       32 </v>
   <v type="int" >       48       18       28       31       32 </v>
   <v type="int" >       48       18       27       28       32 </v>
   <v type="int" >       24       19       27       27       32 </v>
   <v type="int" >       24       19       26       27       27 </v>
   <v type="int" >       24       20       21       21       24 </v>
   <v type="int" >       24       20       21       21       29 </v>
   <v type="int" >       48       21       24       25       33 </v>
   <v type="int" >       48       21       22       25       33 </v>
   <v type="int" >       48       21       22       30       33 </v>
   <v type="int" >       24       21       21       24       33 </v>
   <v type="int" >       24       21       21       29       33 </v>
   <v type="int" >       48       21       29       30       33 </v>
   <v type="int" >       24       22       22       25       34 </v>
   <v type="int" >       24       22       22       23       34 </v>
   <v type="int" >       48       22       23       31       34 </v>
   <v type="int" >       48       22       25       33       34 </v>
   <v type="int" >       48       22       30       33       34 </v>
   <v type="int" >       48       22       30       31       34 </v>
   <v type="int" >       24       23       31       31       34 </v>
   <v type="int" >       24       23       31       31       32 </v>
   <v type="int" >       12       24       24       25       25 </v>
   <v type="int" >       24       24       25       25       33 </v>
   <v type="int" >       12       25       25       33       33 </v>
   <v type="int" >       24       25       33       33       34 </v>
   <v type="int" >       24       26       27       27       29 </v>
   <v type="int" >       48       27       29       30       32 </v>
   <v type="int" >       48       27       28       30       32 </v>
   <v type="int" >       24       27       27       29       32 </v>
   <v type="int" >       48       28       30       31       31 </v>
   <v type="int" >       24       28       28       31       31 </v>
   <v type="int" >       48       28       30       31       32 </v>
   <v type="int" >       24       29       30       30       33 </v>
   <v type="int" >       24       29       30       30       32 </v>
   <v type="int" >       48       30       33       34       35 </v>
   <v type="int" >       48       30       31       34       35 </v>
   <v type="int" >       48       30       31       31       35 </v>
   <v type="int" >       24       30       30       33       35 </v>
   <v type="int" >       24       30       30       32       35 </v>
   <v type="int" >       48       30       31       32       35 </v>
   <v type="int" >       24       31       31       34       35 </v>
   <v type="int" >       24       31       31       32       35 </v>
   <v type="int" >       48       31       34       35       35 </v>
   <v type="int" >       24       31       31       35       35 </v>
   <v type="int" >       12       33       33       34       34 </v>
   <v type="int" >       24       33       34       34       35 </v>
   <v type="int" >       12       34       34       35       35 </v>
   <v type="int" >       24       34       35       35       35 </v>
   <v type="int" >        6       35       35       35       35 </v>
  </varray>
  <i name="volumeweight">      0.00022862 </i>
 </kpoints>
 <parameters>
  <separator name="general" >
   <i type="string" name="SYSTEM">unknown system</i>
   <i type="logical" name="LCOMPAT"> F  </i>
  </separator>
  <separator name="electronic" >
   <i type="string" name="PREC">accura</i>
   <i name="ENMAX">    700.00000000</i>
   <i name="ENAUG">    758.78000000</i>
   <i name="EDIFF">      0.00000001</i>
   <i type="int" name="IALGO">    38</i>
   <i type="int" name="IWAVPR">    10</i>
   <i type="int" name="NBANDS">    12</i>
   <i name="NELECT">     14.00000000</i>
   <i type="int" name="TURBO">     0</i>
   <i type="int" name="IRESTART">     0</i>
   <i type="int" name="NREBOOT">     0</i>
   <i type="int" name="NMIN">     0</i>
   <i name="EREF">      0.00000000</i>
   <separator name="electronic smearing" >
    <i type="int" name="ISMEAR">    -5</i>
    <i name="SIGMA">      0.05000000</i>
    <i name="KSPACING">      0.50000000</i>
    <i type="logical" name="KGAMMA"> T  </i>
   </separator>
   <separator name="electronic projectors" >
    <i type="logical" name="LREAL"> T  </i>
    <v name="ROPT">     -0.00025000     -0.00025000</v>
    <i type="int" name="LMAXPAW">  -100</i>
    <i type="int" name="LMAXMIX">     2</i>
    <i type="logical" name="NLSPLINE"> F  </i>
   </separator>
   <separator name="electronic startup" >
    <i type="int" name="ISTART">     0</i>
    <i type="int" name="ICHARG">     2</i>
    <i type="int" name="INIWAV">     1</i>
   </separator>
   <separator name="electronic spin" >
    <i type="int" name="ISPIN">     2</i>
    <i type="logical" name="LNONCOLLINEAR"> F  </i>
    <v name="MAGMOM">      0.60000000      0.60000000</v>
    <i name="NUPDOWN">     -1.00000000</i>
    <i type="logical" name="LSORBIT"> F  </i>
    <v name="SAXIS">      0.00000000      0.00000000      1.00000000</v>
    <i type="logical" name="LSPIRAL"> F  </i>
    <v name="QSPIRAL">      0.00000000      0.00000000      0.00000000</v>
    <i type="logical" name="LZEROZ"> F  </i>
   </separator>
   <separator name="electronic exchange-correlation" >
    <i type="logical" name="LASPH"> F  </i>
    <i type="logical" name="LMETAGGA"> F  </i>
   </separator>
   <separator name="electronic convergence" >
    <i type="int" name="NELM">   100</i>
    <i type="int" name="NELMDL">     0</i>
    <i type="int" name="NELMIN">     2</i>
    <i name="ENINI">    700.00000000</i>
    <separator name="electronic convergence detail" >
     <i type="logical" name="LDIAG"> T  </i>
     <i type="logical" name="LSUBROT"> F  </i>
     <i name="WEIMIN">      0.00000000</i>
     <i name="EBREAK">      0.00000000</i>
     <i name="DEPER">      0.30000000</i>
     <i type="int" name="NRMM">     4</i>
     <i name="TIME">      0.40000000</i>
    </separator>
   </separator>
   <separator name="electronic mixer" >
    <i name="AMIX">      0.40000000</i>
    <i name="BMIX">      1.00000000</i>
    <i name="AMIN">      0.10000000</i>
    <i name="AMIX_MAG">      1.60000000</i>
    <i name="BMIX_MAG">      1.00000000</i>
    <separator name="electronic mixer details" >
     <i type="int" name="IMIX">     4</i>
     <i type="int" name="MAXMIX">   -45</i>
     <i name="WC">    100.00000000</i>
     <i type="int" name="INIMIX">     1</i>
     <i type="int" name="MIXPRE">     1</i>
     <i type="int" name="MREMOVE">     5</i>
    </separator>
   </separator>
   <separator name="electronic dipolcorrection" >
    <i type="logical" name="LDIPOL"> F  </i>
    <i type="logical" name="LMONO"> F  </i>
    <i type="int" name="IDIPOL">     0</i>
    <i name="EPSILON">      1.00000000</i>
    <v name="DIPOL">   -100.00000000   -100.00000000   -100.00000000</v>
    <i name="EFIELD">      0.00000000</i>
   </separator>
  </separator>
  <separator name="grids" >
   <i type="int" name="NGX">    28</i>
   <i type="int" name="NGY">    28</i>
   <i type="int" name="NGZ">    28</i>
   <i type="int" name="NGXF">    56</i>
   <i type="int" name="NGYF">    56</i>
   <i type="int" name="NGZF">    56</i>
   <i type="logical" name="ADDGRID"> F  </i>
  </separator>
  <separator name="ionic" >
   <i type="int" name="NSW">     0</i>
   <i type="int" name="IBRION">    -1</i>
   <i type="int" name="ISIF">     3</i>
   <i name="PSTRESS">      0.00000000</i>
   <i name="EDIFFG">      0.00000010</i>
   <i type="int" name="NFREE">     0</i>
   <i name="POTIM">      0.50000000</i>
   <i name="SMASS">     -3.00000000</i>
   <i name="SCALEE">      1.00000000</i>
  </separator>
  <separator name="ionic md" >
   <i name="TEBEG">      0.00010000</i>
   <i name="TEEND">      0.00010000</i>
   <i type="int" name="NBLOCK">     1</i>
   <i type="int" name="KBLOCK">     1</i>
   <i type="int" name="NPACO">   256</i>
   <i name="APACO">     16.00000000</i>
  </separator>
  <separator name="symmetry" >
   <i type="int" name="ISYM">     2</i>
   <i name="SYMPREC">      0.00001000</i>
  </separator>
  <separator name="dos" >
   <i type="logical" name="LORBIT"> F  </i>
   <v name="RWIGS">     -1.00000000     -1.00000000</v>
   <i type="int" name="NEDOS">   301</i>
   <i name="EMIN">     10.00000000</i>
   <i name="EMAX">    -10.00000000</i>
   <i name="EFERMI">      0.00000000</i>
  </separator>
  <separator name="writing" >
   <i type="int" name="NWRITE">     2</i>
   <i type="logical" name="LWAVE"> F  </i>
   <i type="logical" name="LCHARG"> T  </i>
   <i type="logical" name="LPARD"> F  </i>
   <i type="logical" name="LVTOT"> F  </i>
   <i type="logical" name="LVHAR"> T  </i>
   <i type="logical" name="LELF"> F  </i>
   <i type="logical" name="LOPTICS"> F  </i>
   <v name="STM">      0.00000000      0.00000000      0.00000000      0.00000000      0.00000000      0.00000000      0.00000000</v>
  </separator>
  <separator name="performance" >
   <i type="int" name="NPAR">     1</i>
   <i type="int" name="NSIM">     4</i>
   <i type="int" name="NBLK">    -1</i>
   <i type="logical" name="LPLANE"> T  </i>
   <i type="logical" name="LSCALAPACK"> T  </i>
   <i type="logical" name="LSCAAWARE"> F  </i>
   <i type="logical" name="LSCALU"> F  </i>
   <i type="logical" name="LASYNC"> F  </i>
   <i type="logical" name="LORBITALREAL"> F  </i>
  </separator>
  <separator name="miscellaneous" >
   <i type="int" name="IDIOT">     3</i>
   <i type="logical" name="LMUSIC"> F  </i>
   <v name="POMASS">     24.30500000     16.00000000</v>
   <v name="DARWINR">      0.00000000      0.00000000</v>
   <v name="DARWINV">      1.00000000      1.00000000</v>
   <i type="logical" name="LCORR"> T  </i>
  </separator>
  <i type="logical" name="GGA_COMPAT"> T  </i>
  <i type="logical" name="LBERRY"> F  </i>
  <i type="int" name="ICORELEVEL">     0</i>
  <i type="logical" name="LDAU"> F  </i>
  <i type="int" name="I_CONSTRAINED_M">     0</i>
  <separator name="electronic exchange-correlation" >
   <i type="string" name="GGA">--</i>
   <i type="int" name="VOSKOWN">     0</i>
   <i type="logical" name="LHFCALC"> F  </i>
   <i type="string" name="PRECFOCK"></i>
   <i type="logical" name="LSYMGRAD"> F  </i>
   <i type="logical" name="LHFONE"> F  </i>
   <i type="logical" name="LRHFCALC"> F  </i>
   <i type="logical" name="LTHOMAS"> F  </i>
   <i type="logical" name="LMODELHF"> F  </i>
   <i name="ENCUT4O">     -1.00000000</i>
   <i type="int" name="EXXOEP">     0</i>
   <i type="int" name="FOURORBIT">     0</i>
   <i name="AEXX">      0.00000000</i>
   <i name="HFALPHA">      0.00000000</i>
   <i name="MCALPHA">      0.00000000</i>
   <i name="ALDAX">      1.00000000</i>
   <i name="AGGAX">      1.00000000</i>
   <i name="ALDAC">      1.00000000</i>
   <i name="AGGAC">      1.00000000</i>
   <i type="int" name="NKREDX">     1</i>
   <i type="int" name="NKREDY">     1</i>
   <i type="int" name="NKREDZ">     1</i>
   <i type="logical" name="SHIFTRED"> F  </i>
   <i type="logical" name="ODDONLY"> F  </i>
   <i type="logical" name="EVENONLY"> F  </i>
   <i type="int" name="LMAXFOCK">     0</i>
   <i type="int" name="NMAXFOCKAE">     0</i>
   <i type="logical" name="LFOCKAEDFT"> F  </i>
   <i name="HFSCREEN">      0.00000000</i>
   <i name="HFSCREENC">      0.00000000</i>
   <i type="int" name="NBANDSGWLOW">     0</i>
  </separator>
  <separator name="vdW DFT" >
   <i type="logical" name="LUSE_VDW"> F  </i>
   <i name="Zab_VDW">     -0.84910000</i>
   <i name="PARAM1">      0.12340000</i>
   <i name="PARAM2">      1.00000000</i>
   <i name="PARAM3">      0.00000000</i>
  </separator>
  <separator name="model GW" >
   <i type="int" name="MODEL_GW">     0</i>
   <i name="MODEL_EPS0">      5.76482164</i>
   <i name="MODEL_ALPHA">      1.00000000</i>
  </separator>
  <separator name="linear response parameters" >
   <i type="logical" name="LEPSILON"> F  </i>
   <i type="logical" name="LRPA"> F  </i>
   <i type="logical" name="LNABLA"> F  </i>
   <i type="logical" name="LVEL"> F  </i>
   <i type="int" name="KINTER">     0</i>
   <i name="CSHIFT">      0.10000000</i>
   <i name="OMEGAMAX">     -1.00000000</i>
   <i name="DEG_THRESHOLD">      0.00200000</i>
  </separator>
  <separator name="orbital magnetization" >
   <i type="logical" name="NUCIND"> F  </i>
   <v name="MAGPOS">      0.00000000      0.00000000      0.00000000</v>
   <i type="logical" name="LNICSALL"> T  </i>
   <i type="logical" name="ORBITALMAG"> F  </i>
   <i type="logical" name="LMAGBLOCH"> F  </i>
   <i type="logical" name="LCHIMAG"> F  </i>
   <i type="logical" name="LGAUGE"> T  </i>
   <i type="int" name="MAGATOM">     0</i>
   <v name="MAGDIPOL">      0.00000000      0.00000000      0.00000000</v>
   <v name="AVECCONST">      0.00000000      0.00000000      0.00000000</v>
  </separator>
  <separator name="response functions" >
   <i type="logical" name="LADDER"> F  </i>
   <i type="logical" name="LFXC"> F  </i>
   <i type="logical" name="LHARTREE"> T  </i>
   <i type="int" name="IBSE">     0</i>
   <i type="logical" name="LTCTE"> F  </i>
   <i type="logical" name="LTETE"> F  </i>
   <i type="logical" name="LTRIPLET"> F  </i>
   <i type="logical" name="LFXCEPS"> F  </i>
   <i type="logical" name="LFXHEG"> F  </i>
   <i type="logical" name="L2ORDER"> F  </i>
   <i type="logical" name="LUSEW"> F  </i>
   <i name="ENCUTGW">     -2.00000000</i>
   <i name="ENCUTGWSOFT">     -2.00000000</i>
   <i name="ENCUTLF">     -1.00000000</i>
   <i type="int" name="LMAXMP2">    -1</i>
   <i name="SCISSOR">      0.00000000</i>
   <i type="int" name="NOMEGA">     0</i>
   <i type="int" name="NOMEGAR">     0</i>
   <i type="int" name="NBANDSGW">    -1</i>
   <i type="int" name="NBANDSO">    -1</i>
   <i type="int" name="NBANDSV">    -1</i>
   <i type="int" name="NELM">   100</i>
   <i type="int" name="DIM">     3</i>
   <i type="int" name="ANTIRES">     0</i>
   <i name="OMEGAMAX">    -30.00000000</i>
   <i name="OMEGAMIN">    -30.00000000</i>
   <i name="OMEGATL">   -200.00000000</i>
   <i type="int" name="OMEGAGRID">     0</i>
   <i name="CSHIFT">     -0.10000000</i>
   <i type="logical" name="SELFENERGY"> F  </i>
   <i type="logical" name="LSPECTRAL"> F  </i>
   <i type="logical" name="ODDONLYGW"> F  </i>
   <i type="logical" name="EVENONLYGW"> F  </i>
   <i type="int" name="NKREDLFX">     1</i>
   <i type="int" name="NKREDLFY">     1</i>
   <i type="int" name="NKREDLFZ">     1</i>
   <i type="int" name="MAXMEM">  1800</i>
   <i type="int" name="TELESCOPE">     0</i>
   <i type="int" name="TAUPAR">     1</i>
  </separator>
  <separator name="External order field" >
   <i name="OFIELD_KAPPA">      0.00000000</i>
   <v name="OFIELD_K">      0.00000000      0.00000000      0.00000000</v>
   <i name="OFIELD_Q6_NEAR">      0.00000000</i>
   <i name="OFIELD_Q6_FAR">      0.00000000</i>
   <i name="OFIELD_A">      0.00000000</i>
  </separator>
 </parameters>
 <atominfo>
  <atoms>       2 </atoms>
  <types>       2 </types>
  <array name="atoms" >
   <dimension dim="1">ion</dimension>
   <field type="string">element</field>
   <field type="int">atomtype</field>
   <set>
    <rc><c>Mg</c><c>   1</c></rc>
    <rc><c>O </c><c>   2</c></rc>
   </set>
  </array>
  <array name="atomtypes" >
   <dimension dim="1">type</dimension>
   <field type="int">atomspertype</field>
   <field type="string">element</field>
   <field>mass</field>
   <field>valence</field>
   <field type="string">pseudopotential</field>
   <set>
    <rc><c>   1</c><c>Mg</c><c>     24.30500000</c><c>      8.00000000</c><c>  PAW_PBE Mg_pv 13Apr2007               </c></rc>
    <rc><c>   1</c><c>O </c><c>     16.00000000</c><c>      6.00000000</c><c>  PAW_PBE O 08Apr2002                   </c></rc>
   </set>
  </array>
 </atominfo>
 <structure name="initialpos" >
  <crystal>
   <varray name="basis" >
    <v>       0.00000000       2.12591000       2.12591000 </v>
    <v>       2.12591000       0.00000000       2.12591000 </v>
    <v>       2.12591000       2.12591000       0.00000000 </v>
   </varray>
   <i name="volume">     19.21607212 </i>
   <varray name="rec_basis" >
    <v>      -0.23519340       0.23519340       0.23519340 </v>
    <v>       0.23519340      -0.23519340       0.23519340 </v>
    <v>       0.23519340       0.23519340      -0.23519340 </v>
   </varray>
  </crystal>
  <varray name="positions" >
   <v>       0.00000000       0.00000000       0.00000000 </v>
   <v>       0.50000000       0.50000000       0.50000000 </v>
  </varray>
 </structure>
 <calculation>
  <scstep>
   <time name="dav">    4.27    4.30</time>
   <time name="total">    4.70    4.74</time>
   <energy>
    <i name="alphaZ">     67.60273441 </i>
    <i name="ewald">   -953.53617340 </i>
    <i name="hartreedc">   -298.74144526 </i>
    <i name="XCdc">     55.09848180 </i>
    <i name="pawpsdc">    995.36460247 </i>
    <i name="pawaedc">  -1115.12359797 </i>
    <i name="eentropy">      0.00000000 </i>
    <i name="bandstr">   -130.13929629 </i>
    <i name="atom">   1489.09684295 </i>
    <i name="e_fr_energy">    109.62214871 </i>
    <i name="e_wo_entrp">    109.62214871 </i>
    <i name="e_0_energy">    109.62214871 </i>
   </energy>
  </scstep>
  <scstep>
   <time name="dav">    4.22    4.23</time>
   <time name="total">    4.23    4.23</time>
   <energy>
    <i name="e_fr_energy">     -9.12532910 </i>
    <i name="e_wo_entrp">     -9.12532910 </i>
    <i name="e_0_energy">     -9.12532910 </i>
   </energy>
  </scstep>
  <scstep>
   <time name="dav">    4.63    4.63</time>
   <time name="total">    4.64    4.68</time>
   <energy>
    <i name="e_fr_energy">    -13.15270392 </i>
    <i name="e_wo_entrp">    -13.15270392 </i>
    <i name="e_0_energy">    -13.15270392 </i>
   </energy>
  </scstep>
  <scstep>
   <time name="dav">    4.23    4.23</time>
   <time name="total">    4.23    4.24</time>
   <energy>
    <i name="e_fr_energy">    -13.17587830 </i>
    <i name="e_wo_entrp">    -13.17587830 </i>
    <i name="e_0_energy">    -13.17587830 </i>
   </energy>
  </scstep>
  <scstep>
   <time name="dav">    4.66    4.66</time>
   <time name="total">    4.95    4.95</time>
   <energy>
    <i name="e_fr_energy">    -13.17601729 </i>
    <i name="e_wo_entrp">    -13.17601729 </i>
    <i name="e_0_energy">    -13.17601729 </i>
   </energy>
  </scstep>
  <scstep>
   <time name="dav">    4.25    4.25</time>
   <time name="total">    4.76    4.77</time>
   <energy>
    <i name="e_fr_energy">    -11.85238639 </i>
    <i name="e_wo_entrp">    -11.85238639 </i>
    <i name="e_0_energy">    -11.85238639 </i>
   </energy>
  </scstep>
  <scstep>
   <time name="dav">    4.16    4.16</time>
   <time name="total">    4.67    4.68</time>
   <energy>
    <i name="e_fr_energy">    -11.87620439 </i>
    <i name="e_wo_entrp">    -11.87620439 </i>
    <i name="e_0_energy">    -11.87620439 </i>
   </energy>
  </scstep>
  <scstep>
   <time name="dav">    4.03    4.03</time>
   <time name="total">    5.85    5.86</time>
   <energy>
    <i name="e_fr_energy">    -11.87121411 </i>
    <i name="e_wo_entrp">    -11.87121411 </i>
    <i name="e_0_energy">    -11.87121411 </i>
   </energy>
  </scstep>
  <scstep>
   <time name="dav">    4.10    4.10</time>
   <time name="total">    4.61    4.62</time>
   <energy>
    <i name="e_fr_energy">    -11.87650460 </i>
    <i name="e_wo_entrp">    -11.87650460 </i>
    <i name="e_0_energy">    -11.87650460 </i>
   </energy>
  </scstep>
  <scstep>
   <time name="dav">    4.65    4.65</time>
   <time name="total">    5.16    5.17</time>
   <energy>
    <i name="e_fr_energy">    -11.87666362 </i>
    <i name="e_wo_entrp">    -11.87666362 </i>
    <i name="e_0_energy">    -11.87666362 </i>
   </energy>
  </scstep>
  <scstep>
   <time name="dav">    4.10    4.10</time>
   <time name="total">    4.61    4.65</time>
   <energy>
    <i name="e_fr_energy">    -11.87676070 </i>
    <i name="e_wo_entrp">    -11.87676070 </i>
    <i name="e_0_energy">    -11.87676070 </i>
   </energy>
  </scstep>
  <scstep>
   <time name="dav">    4.09    4.09</time>
   <time name="total">    4.61    4.61</time>
   <energy>
    <i name="e_fr_energy">    -11.87675917 </i>
    <i name="e_wo_entrp">    -11.87675917 </i>
    <i name="e_0_energy">    -11.87675917 </i>
   </energy>
  </scstep>
  <scstep>
   <time name="dav">    4.34    4.34</time>
   <time name="total">    4.86    4.86</time>
   <energy>
    <i name="e_fr_energy">    -11.87675833 </i>
    <i name="e_wo_entrp">    -11.87675833 </i>
    <i name="e_0_energy">    -11.87675833 </i>
   </energy>
  </scstep>
  <scstep>
   <time name="dav">    4.22    4.22</time>
   <time name="total">    4.73    4.75</time>
   <energy>
    <i name="e_fr_energy">    -11.87675822 </i>
    <i name="e_wo_entrp">    -11.87675822 </i>
    <i name="e_0_energy">    -11.87675822 </i>
   </energy>
  </scstep>
  <scstep>
   <time name="dav">    4.14    4.13</time>
   <time name="total">    4.65    4.66</time>
   <energy>
    <i name="e_fr_energy">    -11.87675824 </i>
    <i name="e_wo_entrp">    -11.87675824 </i>
    <i name="e_0_energy">    -11.87675824 </i>
   </energy>
  </scstep>
  <scstep>
   <time name="dav">    2.79    2.79</time>
   <time name="total">    3.31    3.37</time>
   <energy>
    <i name="e_fr_energy">    -11.87675826 </i>
    <i name="e_wo_entrp">    -11.87675826 </i>
    <i name="e_0_energy">    -11.87675826 </i>
   </energy>
  </scstep>
  <scstep>
   <time name="dav">    2.58    2.58</time>
   <time name="total">    2.81    2.84</time>
   <energy>
    <i name="alphaZ">     67.60273441 </i>
    <i name="ewald">   -953.53617340 </i>
    <i name="hartreedc">   -309.82590061 </i>
    <i name="XCdc">     56.21744497 </i>
    <i name="pawpsdc">   1088.81101370 </i>
    <i name="pawaedc">  -1208.40237843 </i>
    <i name="eentropy">      0.00000000 </i>
    <i name="bandstr">   -241.84034185 </i>
    <i name="atom">   1489.09684295 </i>
    <i name="e_fr_energy">    -11.87675826 </i>
    <i name="e_wo_entrp">    -11.87675826 </i>
    <i name="e_0_energy">    -11.87675826 </i>
   </energy>
  </scstep>
  <structure>
   <crystal>
    <varray name="basis" >
     <v>       0.00000000       2.12591000       2.12591000 </v>
     <v>       2.12591000       0.00000000       2.12591000 </v>
     <v>       2.12591000       2.12591000       0.00000000 </v>
    </varray>
    <i name="volume">     19.21607212 </i>
    <varray name="rec_basis" >
     <v>      -0.23519340       0.23519340       0.23519340 </v>
     <v>       0.23519340      -0.23519340       0.23519340 </v>
     <v>       0.23519340       0.23519340      -0.23519340 </v>
    </varray>
   </crystal>
   <varray name="positions" >
    <v>       0.00000000       0.00000000       0.00000000 </v>
    <v>       0.50000000       0.50000000       0.50000000 </v>
   </varray>
  </structure>
  <varray name="forces" >
   <v>       0.00000000      -0.00000000      -0.00000000 </v>
   <v>      -0.00000000       0.00000000       0.00000000 </v>
  </varray>
  <varray name="stress" >
   <v>      -0.01262984       0.00000000      -0.00000000 </v>
   <v>       0.00000000      -0.01262984      -0.00000000 </v>
   <v>       0.00000000       0.00000000      -0.01262984 </v>
  </varray>
  <energy>
   <i name="e_fr_energy">    -11.87675826 </i>
   <i name="e_wo_entrp">    -11.87675826 </i>
   <i name="e_0_energy">      0.00000000 </i>
  </energy>
  <time name="totalsc">   90.15   90.64</time>
  <eigenvalues>
   <array>
    <dimension dim="1">band</dimension>
    <dimension dim="2">kpoint</dimension>
    <dimension dim="3">spin</dimension>
    <field>eigene</field>
    <field>occ</field>
    <set>
     <set comment="spin 1">
      <set comment="kpoint 1">
       <r>  -36.5192    1.0000 </r>
       <r>  -36.5192    1.0000 </r>
       <r>  -36.5192    1.0000 </r>
       <r>  -14.5211    1.0000 </r>
       <r>    2.6011    1.0000 </r>
       <r>    2.6011    1.0000 </r>
       <r>    2.6011    1.0000 </r>
       <r>    7.0668    0.0000 </r>
       <r>   18.2468    0.0000 </r>
       <r>   18.2468    0.0000 </r>
       <r>   18.2468    0.0000 </r>
       <r>   22.0830    0.0000 </r>
      </set>
      <set comment="kpoint 2">
       <r>  -36.5278    1.0000 </r>
       <r>  -36.5197    1.0000 </r>
       <r>  -36.5197    1.0000 </r>
       <r>  -14.3929    1.0000 </r>
       <r>    1.8275    1.0000 </r>
       <r>    2.5229    1.0000 </r>
       <r>    2.5229    1.0000 </r>
       <r>    7.8218    0.0000 </r>
       <r>   16.8116    0.0000 </r>
       <r>   18.5253    0.0000 </r>
       <r>   18.5253    0.0000 </r>
       <r>   22.9812    0.0000 </r>
      </set>
      <set comment="kpoint 3">
       <r>  -36.5507    1.0000 </r>
       <r>  -36.5221    1.0000 </r>
       <r>  -36.5221    1.0000 </r>
       <r>  -14.0500    1.0000 </r>
       <r>    0.3638    1.0000 </r>
       <r>    2.3310    1.0000 </r>
       <r>    2.3310    1.0000 </r>
       <r>    9.1505    0.0000 </r>
       <r>   15.2406    0.0000 </r>
       <r>   18.9946    0.0000 </r>
       <r>   18.9946    0.0000 </r>
       <r>   22.3788    0.0000 </r>
      </set>
      <set comment="kpoint 4">
       <r>  -36.5766    1.0000 </r>
       <r>  -36.5250    1.0000 </r>
       <r>  -36.5250    1.0000 </r>
       <r>  -13.6209    1.0000 </r>
       <r>   -0.9800    1.0000 </r>
       <r>    2.1241    1.0000 </r>
       <r>    2.1241    1.0000 </r>
       <r>   10.0520    0.0000 </r>
       <r>   14.6855    0.0000 </r>
       <r>   18.9329    0.0000 </r>
       <r>   18.9329    0.0000 </r>
       <r>   23.2084    0.0000 </r>
      </set>
      <set comment="kpoint 5">
       <r>  -36.5932    1.0000 </r>
       <r>  -36.5265    1.0000 </r>
       <r>  -36.5265    1.0000 </r>
       <r>  -13.3119    1.0000 </r>
       <r>   -1.7832    1.0000 </r>
       <r>    1.9952    1.0000 </r>
       <r>    1.9952    1.0000 </r>
       <r>   10.3106    0.0000 </r>
       <r>   14.8393    0.0000 </r>
       <r>   18.6896    0.0000 </r>
       <r>   18.6896    0.0000 </r>
       <r>   23.1312    0.0000 </r>
      </set>
      <set comment="kpoint 6">
       <r>  -36.5273    1.0000 </r>
       <r>  -36.5218    1.0000 </r>
       <r>  -36.5218    1.0000 </r>
       <r>  -14.3522    1.0000 </r>
       <r>    1.7529    1.0000 </r>
       <r>    2.4221    1.0000 </r>
       <r>    2.4221    1.0000 </r>
       <r>    8.0633    0.0000 </r>
       <r>   16.4077    0.0000 </r>
       <r>   18.6299    0.0000 </r>
       <r>   18.6299    0.0000 </r>
       <r>   21.5359    0.0000 </r>
      </set>
      <set comment="kpoint 7">
       <r>  -36.5441    1.0000 </r>
       <r>  -36.5250    1.0000 </r>
       <r>  -36.5236    1.0000 </r>
       <r>  -14.0859    1.0000 </r>
       <r>    0.6852    1.0000 </r>
       <r>    2.2185    1.0000 </r>
       <r>    2.2340    1.0000 </r>
       <r>    9.1972    0.0000 </r>
       <r>   15.1044    0.0000 </r>
       <r>   18.8667    0.0000 </r>
       <r>   19.0607    0.0000 </r>
       <r>   20.5196    0.0000 </r>
      </set>
      <set comment="kpoint 8">
       <r>  -36.5678    1.0000 </r>
       <r>  -36.5279    1.0000 </r>
       <r>  -36.5266    1.0000 </r>
       <r>  -13.6900    1.0000 </r>
       <r>   -0.5577    1.0000 </r>
       <r>    1.9503    1.0000 </r>
       <r>    2.0145    1.0000 </r>
       <r>   10.3131    0.0000 </r>
       <r>   14.4195    0.0000 </r>
       <r>   18.1647    0.0000 </r>
       <r>   19.2114    0.0000 </r>
       <r>   21.3551    0.0000 </r>
      </set>
      <set comment="kpoint 9">
       <r>  -36.5865    1.0000 </r>
       <r>  -36.5304    1.0000 </r>
       <r>  -36.5292    1.0000 </r>
       <r>  -13.3397    1.0000 </r>
       <r>   -1.4620    1.0000 </r>
       <r>    1.6788    1.0000 </r>
       <r>    1.8991    1.0000 </r>
       <r>   10.8046    0.0000 </r>
       <r>   14.5934    0.0000 </r>
       <r>   17.5598    0.0000 </r>
       <r>   19.0302    0.0000 </r>
       <r>   22.6962    0.0000 </r>
      </set>
      <set comment="kpoint 10">
       <r>  -36.5918    1.0000 </r>
       <r>  -36.5330    1.0000 </r>
       <r>  -36.5281    1.0000 </r>
       <r>  -13.2324    1.0000 </r>
       <r>   -1.7106    1.0000 </r>
       <r>    1.5382    1.0000 </r>
       <r>    1.9180    1.0000 </r>
       <r>   10.8862    0.0000 </r>
       <r>   14.7834    0.0000 </r>
       <r>   17.4065    0.0000 </r>
       <r>   18.9427    0.0000 </r>
       <r>   23.6837    0.0000 </r>
      </set>
      <set comment="kpoint 11">
       <r>  -36.5813    1.0000 </r>
       <r>  -36.5331    1.0000 </r>
       <r>  -36.5254    1.0000 </r>
       <r>  -13.4377    1.0000 </r>
       <r>   -1.2110    1.0000 </r>
       <r>    1.5882    1.0000 </r>
       <r>    2.0641    1.0000 </r>
       <r>   10.7346    0.0000 </r>
       <r>   14.5564    0.0000 </r>
       <r>   17.6857    0.0000 </r>
       <r>   19.1706    0.0000 </r>
       <r>   22.8246    0.0000 </r>
      </set>
      <set comment="kpoint 12">
       <r>  -36.5602    1.0000 </r>
       <r>  -36.5302    1.0000 </r>
       <r>  -36.5221    1.0000 </r>
       <r>  -13.8261    1.0000 </r>
       <r>   -0.1627    1.0000 </r>
       <r>    1.8293    1.0000 </r>
       <r>    2.2790    1.0000 </r>
       <r>    9.9930    0.0000 </r>
       <r>   14.6817    0.0000 </r>
       <r>   18.2423    0.0000 </r>
       <r>   19.5964    0.0000 </r>
       <r>   21.1492    0.0000 </r>
      </set>
      <set comment="kpoint 13">
       <r>  -36.5390    1.0000 </r>
       <r>  -36.5252    1.0000 </r>
       <r>  -36.5199    1.0000 </r>
       <r>  -14.1948    1.0000 </r>
       <r>    1.0304    1.0000 </r>
       <r>    2.2048    1.0000 </r>
       <r>    2.4642    1.0000 </r>
       <r>    8.7430    0.0000 </r>
       <r>   15.6711    0.0000 </r>
       <r>   18.5956    0.0000 </r>
       <r>   19.0586    0.0000 </r>
       <r>   21.4840    0.0000 </r>
      </set>
      <set comment="kpoint 14">
       <r>  -36.5480    1.0000 </r>
       <r>  -36.5296    1.0000 </r>
       <r>  -36.5296    1.0000 </r>
       <r>  -13.9206    1.0000 </r>
       <r>    0.3434    1.0000 </r>
       <r>    2.0049    1.0000 </r>
       <r>    2.0049    1.0000 </r>
       <r>    9.9241    0.0000 </r>
       <r>   14.1594    0.0000 </r>
       <r>   18.4752    0.0000 </r>
       <r>   19.5315    0.0000 </r>
       <r>   19.5315    0.0000 </r>
      </set>
      <set comment="kpoint 15">
       <r>  -36.5633    1.0000 </r>
       <r>  -36.5338    1.0000 </r>
       <r>  -36.5333    1.0000 </r>
       <r>  -13.6149    1.0000 </r>
       <r>   -0.4035    1.0000 </r>
       <r>    1.6635    1.0000 </r>
       <r>    1.7975    1.0000 </r>
       <r>   10.9749    0.0000 </r>
       <r>   13.4811    0.0000 </r>
       <r>   17.1037    0.0000 </r>
       <r>   19.8731    0.0000 </r>
       <r>   20.3242    0.0000 </r>
      </set>
      <set comment="kpoint 16">
       <r>  -36.5775    1.0000 </r>
       <r>  -36.5400    1.0000 </r>
       <r>  -36.5347    1.0000 </r>
       <r>  -13.2992    1.0000 </r>
       <r>   -1.0259    1.0000 </r>
       <r>    1.1297    1.0000 </r>
       <r>    1.6856    1.0000 </r>
       <r>   11.7444    0.0000 </r>
       <r>   13.7646    0.0000 </r>
       <r>   16.1570    0.0000 </r>
       <r>   19.8097    0.0000 </r>
       <r>   21.0702    0.0000 </r>
      </set>
      <set comment="kpoint 17">
       <r>  -36.5829    1.0000 </r>
       <r>  -36.5465    1.0000 </r>
       <r>  -36.5330    1.0000 </r>
       <r>  -13.1354    1.0000 </r>
       <r>   -1.2598    1.0000 </r>
       <r>    0.6740    1.0000 </r>
       <r>    1.7124    1.0000 </r>
       <r>   12.0221    0.0000 </r>
       <r>   14.4713    0.0000 </r>
       <r>   15.7287    0.0000 </r>
       <r>   19.6257    0.0000 </r>
       <r>   21.6878    0.0000 </r>
      </set>
      <set comment="kpoint 18">
       <r>  -36.5783    1.0000 </r>
       <r>  -36.5487    1.0000 </r>
       <r>  -36.5291    1.0000 </r>
       <r>  -13.2196    1.0000 </r>
       <r>   -1.0613    1.0000 </r>
       <r>    0.5810    1.0000 </r>
       <r>    1.8687    1.0000 </r>
       <r>   12.0224    0.0000 </r>
       <r>   14.4145    0.0000 </r>
       <r>   15.9506    0.0000 </r>
       <r>   19.6335    0.0000 </r>
       <r>   22.7295    0.0000 </r>
      </set>
      <set comment="kpoint 19">
       <r>  -36.5694    1.0000 </r>
       <r>  -36.5424    1.0000 </r>
       <r>  -36.5248    1.0000 </r>
       <r>  -13.5004    1.0000 </r>
       <r>   -0.6448    1.0000 </r>
       <r>    1.0383    1.0000 </r>
       <r>    2.0918    1.0000 </r>
       <r>   11.2665    0.0000 </r>
       <r>   14.2484    0.0000 </r>
       <r>   16.9222    0.0000 </r>
       <r>   19.9250    0.0000 </r>
       <r>   21.4885    0.0000 </r>
      </set>
      <set comment="kpoint 20">
       <r>  -36.5693    1.0000 </r>
       <r>  -36.5381    1.0000 </r>
       <r>  -36.5381    1.0000 </r>
       <r>  -13.4252    1.0000 </r>
       <r>   -0.7384    1.0000 </r>
       <r>    1.5836    1.0000 </r>
       <r>    1.5836    1.0000 </r>
       <r>   11.5983    0.0000 </r>
       <r>   12.5858    0.0000 </r>
       <r>   16.1884    0.0000 </r>
       <r>   20.4812    0.0000 </r>
       <r>   20.4813    0.0000 </r>
      </set>
      <set comment="kpoint 21">
       <r>  -36.5768    1.0000 </r>
       <r>  -36.5440    1.0000 </r>
       <r>  -36.5404    1.0000 </r>
       <r>  -13.2045    1.0000 </r>
       <r>   -1.0402    1.0000 </r>
       <r>    1.1534    1.0000 </r>
       <r>    1.4647    1.0000 </r>
       <r>   12.1538    0.0000 </r>
       <r>   12.5953    0.0000 </r>
       <r>   15.5259    0.0000 </r>
       <r>   20.6383    0.0000 </r>
       <r>   20.7620    0.0000 </r>
      </set>
      <set comment="kpoint 22">
       <r>  -36.5764    1.0000 </r>
       <r>  -36.5552    1.0000 </r>
       <r>  -36.5390    1.0000 </r>
       <r>  -13.0607    1.0000 </r>
       <r>   -0.9513    1.0000 </r>
       <r>    0.3323    1.0000 </r>
       <r>    1.4864    1.0000 </r>
       <r>   12.4186    0.0000 </r>
       <r>   13.7519    0.0000 </r>
       <r>   15.0590    0.0000 </r>
       <r>   20.3982    0.0000 </r>
       <r>   20.6003    0.0000 </r>
      </set>
      <set comment="kpoint 23">
       <r>  -36.5690    1.0000 </r>
       <r>  -36.5652    1.0000 </r>
       <r>  -36.5347    1.0000 </r>
       <r>  -13.0679    1.0000 </r>
       <r>   -0.5264    1.0000 </r>
       <r>   -0.3532    1.0000 </r>
       <r>    1.6413    1.0000 </r>
       <r>   12.7291    0.0000 </r>
       <r>   14.5829    0.0000 </r>
       <r>   14.7714    0.0000 </r>
       <r>   20.0334    0.0000 </r>
       <r>   21.0847    0.0000 </r>
      </set>
      <set comment="kpoint 24">
       <r>  -36.5823    1.0000 </r>
       <r>  -36.5438    1.0000 </r>
       <r>  -36.5438    1.0000 </r>
       <r>  -13.1017    1.0000 </r>
       <r>   -1.2750    1.0000 </r>
       <r>    1.3331    1.0000 </r>
       <r>    1.3331    1.0000 </r>
       <r>   11.7890    0.0000 </r>
       <r>   12.2601    0.0000 </r>
       <r>   15.4218    0.0000 </r>
       <r>   21.0919    0.0000 </r>
       <r>   21.0919    0.0000 </r>
      </set>
      <set comment="kpoint 25">
       <r>  -36.5815    1.0000 </r>
       <r>  -36.5486    1.0000 </r>
       <r>  -36.5432    1.0000 </r>
       <r>  -13.0449    1.0000 </r>
       <r>   -1.2241    1.0000 </r>
       <r>    0.9454    1.0000 </r>
       <r>    1.3413    1.0000 </r>
       <r>   11.9779    0.0000 </r>
       <r>   12.6956    0.0000 </r>
       <r>   15.2879    0.0000 </r>
       <r>   20.8605    0.0000 </r>
       <r>   20.9687    0.0000 </r>
      </set>
      <set comment="kpoint 26">
       <r>  -36.5572    1.0000 </r>
       <r>  -36.5332    1.0000 </r>
       <r>  -36.5251    1.0000 </r>
       <r>  -13.7976    1.0000 </r>
       <r>   -0.0508    1.0000 </r>
       <r>    1.7051    1.0000 </r>
       <r>    2.1238    1.0000 </r>
       <r>   10.2981    0.0000 </r>
       <r>   14.2638    0.0000 </r>
       <r>   17.9192    0.0000 </r>
       <r>   19.9462    0.0000 </r>
       <r>   20.0534    0.0000 </r>
      </set>
      <set comment="kpoint 27">
       <r>  -36.5732    1.0000 </r>
       <r>  -36.5395    1.0000 </r>
       <r>  -36.5284    1.0000 </r>
       <r>  -13.4438    1.0000 </r>
       <r>   -0.8251    1.0000 </r>
       <r>    1.2234    1.0000 </r>
       <r>    1.9104    1.0000 </r>
       <r>   11.3602    0.0000 </r>
       <r>   14.0453    0.0000 </r>
       <r>   16.8195    0.0000 </r>
       <r>   19.5544    0.0000 </r>
       <r>   21.4813    0.0000 </r>
      </set>
      <set comment="kpoint 28">
       <r>  -36.5841    1.0000 </r>
       <r>  -36.5421    1.0000 </r>
       <r>  -36.5314    1.0000 </r>
       <r>  -13.1950    1.0000 </r>
       <r>   -1.3320    1.0000 </r>
       <r>    0.9622    1.0000 </r>
       <r>    1.7485    1.0000 </r>
       <r>   11.7524    0.0000 </r>
       <r>   14.4916    0.0000 </r>
       <r>   16.2102    0.0000 </r>
       <r>   19.2405    0.0000 </r>
       <r>   22.7163    0.0000 </r>
      </set>
      <set comment="kpoint 29">
       <r>  -36.5718    1.0000 </r>
       <r>  -36.5423    1.0000 </r>
       <r>  -36.5356    1.0000 </r>
       <r>  -13.3527    1.0000 </r>
       <r>   -0.7980    1.0000 </r>
       <r>    1.2054    1.0000 </r>
       <r>    1.5920    1.0000 </r>
       <r>   11.9850    0.0000 </r>
       <r>   13.0816    0.0000 </r>
       <r>   16.0485    0.0000 </r>
       <r>   19.8721    0.0000 </r>
       <r>   21.0259    0.0000 </r>
      </set>
      <set comment="kpoint 30">
       <r>  -36.5761    1.0000 </r>
       <r>  -36.5503    1.0000 </r>
       <r>  -36.5382    1.0000 </r>
       <r>  -13.1319    1.0000 </r>
       <r>   -0.9458    1.0000 </r>
       <r>    0.5860    1.0000 </r>
       <r>    1.4174    1.0000 </r>
       <r>   12.6674    0.0000 </r>
       <r>   13.6994    0.0000 </r>
       <r>   15.2806    0.0000 </r>
       <r>   19.3115    0.0000 </r>
       <r>   21.8778    0.0000 </r>
      </set>
      <set comment="kpoint 31">
       <r>  -36.5745    1.0000 </r>
       <r>  -36.5569    1.0000 </r>
       <r>  -36.5370    1.0000 </r>
       <r>  -13.0678    1.0000 </r>
       <r>   -0.8238    1.0000 </r>
       <r>    0.1048    1.0000 </r>
       <r>    1.4566    1.0000 </r>
       <r>   12.9064    0.0000 </r>
       <r>   14.3692    0.0000 </r>
       <r>   14.9810    0.0000 </r>
       <r>   18.9873    0.0000 </r>
       <r>   22.5302    0.0000 </r>
      </set>
      <set comment="kpoint 32">
       <r>  -36.5736    1.0000 </r>
       <r>  -36.5530    1.0000 </r>
       <r>  -36.5326    1.0000 </r>
       <r>  -13.1953    1.0000 </r>
       <r>   -0.8337    1.0000 </r>
       <r>    0.3964    1.0000 </r>
       <r>    1.6682    1.0000 </r>
       <r>   12.5941    0.0000 </r>
       <r>   13.9911    0.0000 </r>
       <r>   15.5757    0.0000 </r>
       <r>   19.3193    0.0000 </r>
       <r>   22.8279    0.0000 </r>
      </set>
      <set comment="kpoint 33">
       <r>  -36.5786    1.0000 </r>
       <r>  -36.5483    1.0000 </r>
       <r>  -36.5439    1.0000 </r>
       <r>  -13.0707    1.0000 </r>
       <r>   -1.0838    1.0000 </r>
       <r>    0.9101    1.0000 </r>
       <r>    1.1841    1.0000 </r>
       <r>   12.4451    0.0000 </r>
       <r>   12.9188    0.0000 </r>
       <r>   15.1807    0.0000 </r>
       <r>   19.8597    0.0000 </r>
       <r>   21.6183    0.0000 </r>
      </set>
      <set comment="kpoint 34">
       <r>  -36.5730    1.0000 </r>
       <r>  -36.5581    1.0000 </r>
       <r>  -36.5427    1.0000 </r>
       <r>  -13.0173    1.0000 </r>
       <r>   -0.7763    1.0000 </r>
       <r>    0.1843    1.0000 </r>
       <r>    1.2015    1.0000 </r>
       <r>   12.9064    0.0000 </r>
       <r>   13.9265    0.0000 </r>
       <r>   14.8060    0.0000 </r>
       <r>   18.9537    0.0000 </r>
       <r>   22.0819    0.0000 </r>
      </set>
      <set comment="kpoint 35">
       <r>  -36.5694    1.0000 </r>
       <r>  -36.5598    1.0000 </r>
       <r>  -36.5438    1.0000 </r>
       <r>  -13.0212    1.0000 </r>
       <r>   -0.5573    1.0000 </r>
       <r>    0.0259    1.0000 </r>
       <r>    1.0383    1.0000 </r>
       <r>   13.7683    0.0000 </r>
       <r>   13.9470    0.0000 </r>
       <r>   14.6015    0.0000 </r>
       <r>   18.1673    0.0000 </r>
       <r>   23.4272    0.0000 </r>
      </set>
     </set>
     <set comment="spin 2">
      <set comment="kpoint 1">
       <r>  -36.5192    1.0000 </r>
       <r>  -36.5192    1.0000 </r>
       <r>  -36.5192    1.0000 </r>
       <r>  -14.5211    1.0000 </r>
       <r>    2.6011    1.0000 </r>
       <r>    2.6011    1.0000 </r>
       <r>    2.6011    1.0000 </r>
       <r>    7.0668    0.0000 </r>
       <r>   18.2468    0.0000 </r>
       <r>   18.2468    0.0000 </r>
       <r>   18.2468    0.0000 </r>
       <r>   22.0830    0.0000 </r>
      </set>
      <set comment="kpoint 2">
       <r>  -36.5278    1.0000 </r>
       <r>  -36.5197    1.0000 </r>
       <r>  -36.5197    1.0000 </r>
       <r>  -14.3929    1.0000 </r>
       <r>    1.8275    1.0000 </r>
       <r>    2.5229    1.0000 </r>
       <r>    2.5229    1.0000 </r>
       <r>    7.8218    0.0000 </r>
       <r>   16.8116    0.0000 </r>
       <r>   18.5253    0.0000 </r>
       <r>   18.5253    0.0000 </r>
       <r>   22.9812    0.0000 </r>
      </set>
      <set comment="kpoint 3">
       <r>  -36.5507    1.0000 </r>
       <r>  -36.5221    1.0000 </r>
       <r>  -36.5221    1.0000 </r>
       <r>  -14.0500    1.0000 </r>
       <r>    0.3638    1.0000 </r>
       <r>    2.3310    1.0000 </r>
       <r>    2.3310    1.0000 </r>
       <r>    9.1505    0.0000 </r>
       <r>   15.2406    0.0000 </r>
       <r>   18.9946    0.0000 </r>
       <r>   18.9946    0.0000 </r>
       <r>   22.3788    0.0000 </r>
      </set>
      <set comment="kpoint 4">
       <r>  -36.5766    1.0000 </r>
       <r>  -36.5250    1.0000 </r>
       <r>  -36.5250    1.0000 </r>
       <r>  -13.6209    1.0000 </r>
       <r>   -0.9800    1.0000 </r>
       <r>    2.1241    1.0000 </r>
       <r>    2.1241    1.0000 </r>
       <r>   10.0520    0.0000 </r>
       <r>   14.6855    0.0000 </r>
       <r>   18.9329    0.0000 </r>
       <r>   18.9329    0.0000 </r>
       <r>   23.2084    0.0000 </r>
      </set>
      <set comment="kpoint 5">
       <r>  -36.5932    1.0000 </r>
       <r>  -36.5265    1.0000 </r>
       <r>  -36.5265    1.0000 </r>
       <r>  -13.3119    1.0000 </r>
       <r>   -1.7832    1.0000 </r>
       <r>    1.9952    1.0000 </r>
       <r>    1.9952    1.0000 </r>
       <r>   10.3106    0.0000 </r>
       <r>   14.8393    0.0000 </r>
       <r>   18.6896    0.0000 </r>
       <r>   18.6896    0.0000 </r>
       <r>   23.1312    0.0000 </r>
      </set>
      <set comment="kpoint 6">
       <r>  -36.5273    1.0000 </r>
       <r>  -36.5218    1.0000 </r>
       <r>  -36.5218    1.0000 </r>
       <r>  -14.3522    1.0000 </r>
       <r>    1.7529    1.0000 </r>
       <r>    2.4221    1.0000 </r>
       <r>    2.4221    1.0000 </r>
       <r>    8.0633    0.0000 </r>
       <r>   16.4077    0.0000 </r>
       <r>   18.6299    0.0000 </r>
       <r>   18.6299    0.0000 </r>
       <r>   21.5359    0.0000 </r>
      </set>
      <set comment="kpoint 7">
       <r>  -36.5441    1.0000 </r>
       <r>  -36.5250    1.0000 </r>
       <r>  -36.5236    1.0000 </r>
       <r>  -14.0859    1.0000 </r>
       <r>    0.6852    1.0000 </r>
       <r>    2.2185    1.0000 </r>
       <r>    2.2340    1.0000 </r>
       <r>    9.1972    0.0000 </r>
       <r>   15.1044    0.0000 </r>
       <r>   18.8667    0.0000 </r>
       <r>   19.0606    0.0000 </r>
       <r>   20.5196    0.0000 </r>
      </set>
      <set comment="kpoint 8">
       <r>  -36.5678    1.0000 </r>
       <r>  -36.5279    1.0000 </r>
       <r>  -36.5266    1.0000 </r>
       <r>  -13.6900    1.0000 </r>
       <r>   -0.5577    1.0000 </r>
       <r>    1.9503    1.0000 </r>
       <r>    2.0145    1.0000 </r>
       <r>   10.3131    0.0000 </r>
       <r>   14.4195    0.0000 </r>
       <r>   18.1647    0.0000 </r>
       <r>   19.2114    0.0000 </r>
       <r>   21.3551    0.0000 </r>
      </set>
      <set comment="kpoint 9">
       <r>  -36.5865    1.0000 </r>
       <r>  -36.5304    1.0000 </r>
       <r>  -36.5292    1.0000 </r>
       <r>  -13.3397    1.0000 </r>
       <r>   -1.4621    1.0000 </r>
       <r>    1.6788    1.0000 </r>
       <r>    1.8991    1.0000 </r>
       <r>   10.8046    0.0000 </r>
       <r>   14.5934    0.0000 </r>
       <r>   17.5598    0.0000 </r>
       <r>   19.0302    0.0000 </r>
       <r>   22.6962    0.0000 </r>
      </set>
      <set comment="kpoint 10">
       <r>  -36.5918    1.0000 </r>
       <r>  -36.5330    1.0000 </r>
       <r>  -36.5281    1.0000 </r>
       <r>  -13.2324    1.0000 </r>
       <r>   -1.7106    1.0000 </r>
       <r>    1.5382    1.0000 </r>
       <r>    1.9180    1.0000 </r>
       <r>   10.8862    0.0000 </r>
       <r>   14.7834    0.0000 </r>
       <r>   17.4065    0.0000 </r>
       <r>   18.9427    0.0000 </r>
       <r>   23.6837    0.0000 </r>
      </set>
      <set comment="kpoint 11">
       <r>  -36.5813    1.0000 </r>
       <r>  -36.5331    1.0000 </r>
       <r>  -36.5254    1.0000 </r>
       <r>  -13.4377    1.0000 </r>
       <r>   -1.2110    1.0000 </r>
       <r>    1.5882    1.0000 </r>
       <r>    2.0641    1.0000 </r>
       <r>   10.7346    0.0000 </r>
       <r>   14.5564    0.0000 </r>
       <r>   17.6857    0.0000 </r>
       <r>   19.1706    0.0000 </r>
       <r>   22.8246    0.0000 </r>
      </set>
      <set comment="kpoint 12">
       <r>  -36.5602    1.0000 </r>
       <r>  -36.5302    1.0000 </r>
       <r>  -36.5221    1.0000 </r>
       <r>  -13.8261    1.0000 </r>
       <r>   -0.1627    1.0000 </r>
       <r>    1.8293    1.0000 </r>
       <r>    2.2790    1.0000 </r>
       <r>    9.9930    0.0000 </r>
       <r>   14.6817    0.0000 </r>
       <r>   18.2423    0.0000 </r>
       <r>   19.5964    0.0000 </r>
       <r>   21.1492    0.0000 </r>
      </set>
      <set comment="kpoint 13">
       <r>  -36.5390    1.0000 </r>
       <r>  -36.5252    1.0000 </r>
       <r>  -36.5199    1.0000 </r>
       <r>  -14.1948    1.0000 </r>
       <r>    1.0304    1.0000 </r>
       <r>    2.2048    1.0000 </r>
       <r>    2.4641    1.0000 </r>
       <r>    8.7430    0.0000 </r>
       <r>   15.6711    0.0000 </r>
       <r>   18.5956    0.0000 </r>
       <r>   19.0586    0.0000 </r>
       <r>   21.4839    0.0000 </r>
      </set>
      <set comment="kpoint 14">
       <r>  -36.5480    1.0000 </r>
       <r>  -36.5296    1.0000 </r>
       <r>  -36.5296    1.0000 </r>
       <r>  -13.9206    1.0000 </r>
       <r>    0.3434    1.0000 </r>
       <r>    2.0049    1.0000 </r>
       <r>    2.0049    1.0000 </r>
       <r>    9.9241    0.0000 </r>
       <r>   14.1594    0.0000 </r>
       <r>   18.4752    0.0000 </r>
       <r>   19.5315    0.0000 </r>
       <r>   19.5315    0.0000 </r>
      </set>
      <set comment="kpoint 15">
       <r>  -36.5633    1.0000 </r>
       <r>  -36.5338    1.0000 </r>
       <r>  -36.5333    1.0000 </r>
       <r>  -13.6149    1.0000 </r>
       <r>   -0.4035    1.0000 </r>
       <r>    1.6635    1.0000 </r>
       <r>    1.7975    1.0000 </r>
       <r>   10.9749    0.0000 </r>
       <r>   13.4811    0.0000 </r>
       <r>   17.1037    0.0000 </r>
       <r>   19.8731    0.0000 </r>
       <r>   20.3242    0.0000 </r>
      </set>
      <set comment="kpoint 16">
       <r>  -36.5775    1.0000 </r>
       <r>  -36.5400    1.0000 </r>
       <r>  -36.5347    1.0000 </r>
       <r>  -13.2992    1.0000 </r>
       <r>   -1.0259    1.0000 </r>
       <r>    1.1297    1.0000 </r>
       <r>    1.6856    1.0000 </r>
       <r>   11.7444    0.0000 </r>
       <r>   13.7646    0.0000 </r>
       <r>   16.1570    0.0000 </r>
       <r>   19.8097    0.0000 </r>
       <r>   21.0702    0.0000 </r>
      </set>
      <set comment="kpoint 17">
       <r>  -36.5829    1.0000 </r>
       <r>  -36.5465    1.0000 </r>
       <r>  -36.5330    1.0000 </r>
       <r>  -13.1354    1.0000 </r>
       <r>   -1.2598    1.0000 </r>
       <r>    0.6740    1.0000 </r>
       <r>    1.7124    1.0000 </r>
       <r>   12.0221    0.0000 </r>
       <r>   14.4713    0.0000 </r>
       <r>   15.7287    0.0000 </r>
       <r>   19.6257    0.0000 </r>
       <r>   21.6878    0.0000 </r>
      </set>
      <set comment="kpoint 18">
       <r>  -36.5783    1.0000 </r>
       <r>  -36.5487    1.0000 </r>
       <r>  -36.5291    1.0000 </r>
       <r>  -13.2196    1.0000 </r>
       <r>   -1.0613    1.0000 </r>
       <r>    0.5810    1.0000 </r>
       <r>    1.8686    1.0000 </r>
       <r>   12.0224    0.0000 </r>
       <r>   14.4145    0.0000 </r>
       <r>   15.9506    0.0000 </r>
       <r>   19.6335    0.0000 </r>
       <r>   22.7295    0.0000 </r>
      </set>
      <set comment="kpoint 19">
       <r>  -36.5694    1.0000 </r>
       <r>  -36.5424    1.0000 </r>
       <r>  -36.5248    1.0000 </r>
       <r>  -13.5004    1.0000 </r>
       <r>   -0.6448    1.0000 </r>
       <r>    1.0383    1.0000 </r>
       <r>    2.0918    1.0000 </r>
       <r>   11.2665    0.0000 </r>
       <r>   14.2484    0.0000 </r>
       <r>   16.9222    0.0000 </r>
       <r>   19.9250    0.0000 </r>
       <r>   21.4885    0.0000 </r>
      </set>
      <set comment="kpoint 20">
       <r>  -36.5693    1.0000 </r>
       <r>  -36.5381    1.0000 </r>
       <r>  -36.5381    1.0000 </r>
       <r>  -13.4252    1.0000 </r>
       <r>   -0.7384    1.0000 </r>
       <r>    1.5836    1.0000 </r>
       <r>    1.5836    1.0000 </r>
       <r>   11.5983    0.0000 </r>
       <r>   12.5858    0.0000 </r>
       <r>   16.1884    0.0000 </r>
       <r>   20.4812    0.0000 </r>
       <r>   20.4812    0.0000 </r>
      </set>
      <set comment="kpoint 21">
       <r>  -36.5768    1.0000 </r>
       <r>  -36.5440    1.0000 </r>
       <r>  -36.5404    1.0000 </r>
       <r>  -13.2045    1.0000 </r>
       <r>   -1.0402    1.0000 </r>
       <r>    1.1534    1.0000 </r>
       <r>    1.4647    1.0000 </r>
       <r>   12.1538    0.0000 </r>
       <r>   12.5953    0.0000 </r>
       <r>   15.5259    0.0000 </r>
       <r>   20.6383    0.0000 </r>
       <r>   20.7620    0.0000 </r>
      </set>
      <set comment="kpoint 22">
       <r>  -36.5764    1.0000 </r>
       <r>  -36.5552    1.0000 </r>
       <r>  -36.5390    1.0000 </r>
       <r>  -13.0607    1.0000 </r>
       <r>   -0.9513    1.0000 </r>
       <r>    0.3323    1.0000 </r>
       <r>    1.4864    1.0000 </r>
       <r>   12.4186    0.0000 </r>
       <r>   13.7519    0.0000 </r>
       <r>   15.0590    0.0000 </r>
       <r>   20.3982    0.0000 </r>
       <r>   20.6003    0.0000 </r>
      </set>
      <set comment="kpoint 23">
       <r>  -36.5690    1.0000 </r>
       <r>  -36.5652    1.0000 </r>
       <r>  -36.5347    1.0000 </r>
       <r>  -13.0679    1.0000 </r>
       <r>   -0.5264    1.0000 </r>
       <r>   -0.3532    1.0000 </r>
       <r>    1.6413    1.0000 </r>
       <r>   12.7291    0.0000 </r>
       <r>   14.5829    0.0000 </r>
       <r>   14.7714    0.0000 </r>
       <r>   20.0334    0.0000 </r>
       <r>   21.0847    0.0000 </r>
      </set>
      <set comment="kpoint 24">
       <r>  -36.5823    1.0000 </r>
       <r>  -36.5438    1.0000 </r>
       <r>  -36.5438    1.0000 </r>
       <r>  -13.1017    1.0000 </r>
       <r>   -1.2750    1.0000 </r>
       <r>    1.3331    1.0000 </r>
       <r>    1.3331    1.0000 </r>
       <r>   11.7890    0.0000 </r>
       <r>   12.2601    0.0000 </r>
       <r>   15.4218    0.0000 </r>
       <r>   21.0919    0.0000 </r>
       <r>   21.0919    0.0000 </r>
      </set>
      <set comment="kpoint 25">
       <r>  -36.5815    1.0000 </r>
       <r>  -36.5486    1.0000 </r>
       <r>  -36.5432    1.0000 </r>
       <r>  -13.0449    1.0000 </r>
       <r>   -1.2241    1.0000 </r>
       <r>    0.9454    1.0000 </r>
       <r>    1.3412    1.0000 </r>
       <r>   11.9779    0.0000 </r>
       <r>   12.6956    0.0000 </r>
       <r>   15.2879    0.0000 </r>
       <r>   20.8605    0.0000 </r>
       <r>   20.9687    0.0000 </r>
      </set>
      <set comment="kpoint 26">
       <r>  -36.5572    1.0000 </r>
       <r>  -36.5332    1.0000 </r>
       <r>  -36.5251    1.0000 </r>
       <r>  -13.7976    1.0000 </r>
       <r>   -0.0508    1.0000 </r>
       <r>    1.7051    1.0000 </r>
       <r>    2.1238    1.0000 </r>
       <r>   10.2981    0.0000 </r>
       <r>   14.2638    0.0000 </r>
       <r>   17.9192    0.0000 </r>
       <r>   19.9462    0.0000 </r>
       <r>   20.0534    0.0000 </r>
      </set>
      <set comment="kpoint 27">
       <r>  -36.5732    1.0000 </r>
       <r>  -36.5395    1.0000 </r>
       <r>  -36.5284    1.0000 </r>
       <r>  -13.4438    1.0000 </r>
       <r>   -0.8251    1.0000 </r>
       <r>    1.2234    1.0000 </r>
       <r>    1.9104    1.0000 </r>
       <r>   11.3602    0.0000 </r>
       <r>   14.0453    0.0000 </r>
       <r>   16.8195    0.0000 </r>
       <r>   19.5544    0.0000 </r>
       <r>   21.4813    0.0000 </r>
      </set>
      <set comment="kpoint 28">
       <r>  -36.5841    1.0000 </r>
       <r>  -36.5421    1.0000 </r>
       <r>  -36.5314    1.0000 </r>
       <r>  -13.1950    1.0000 </r>
       <r>   -1.3320    1.0000 </r>
       <r>    0.9622    1.0000 </r>
       <r>    1.7485    1.0000 </r>
       <r>   11.7524    0.0000 </r>
       <r>   14.4916    0.0000 </r>
       <r>   16.2102    0.0000 </r>
       <r>   19.2405    0.0000 </r>
       <r>   22.7163    0.0000 </r>
      </set>
      <set comment="kpoint 29">
       <r>  -36.5718    1.0000 </r>
       <r>  -36.5423    1.0000 </r>
       <r>  -36.5356    1.0000 </r>
       <r>  -13.3527    1.0000 </r>
       <r>   -0.7980    1.0000 </r>
       <r>    1.2054    1.0000 </r>
       <r>    1.5920    1.0000 </r>
       <r>   11.9850    0.0000 </r>
       <r>   13.0816    0.0000 </r>
       <r>   16.0485    0.0000 </r>
       <r>   19.8721    0.0000 </r>
       <r>   21.0259    0.0000 </r>
      </set>
      <set comment="kpoint 30">
       <r>  -36.5761    1.0000 </r>
       <r>  -36.5503    1.0000 </r>
       <r>  -36.5382    1.0000 </r>
       <r>  -13.1319    1.0000 </r>
       <r>   -0.9458    1.0000 </r>
       <r>    0.5860    1.0000 </r>
       <r>    1.4174    1.0000 </r>
       <r>   12.6674    0.0000 </r>
       <r>   13.6994    0.0000 </r>
       <r>   15.2806    0.0000 </r>
       <r>   19.3115    0.0000 </r>
       <r>   21.8778    0.0000 </r>
      </set>
      <set comment="kpoint 31">
       <r>  -36.5745    1.0000 </r>
       <r>  -36.5569    1.0000 </r>
       <r>  -36.5370    1.0000 </r>
       <r>  -13.0678    1.0000 </r>
       <r>   -0.8238    1.0000 </r>
       <r>    0.1048    1.0000 </r>
       <r>    1.4566    1.0000 </r>
       <r>   12.9064    0.0000 </r>
       <r>   14.3692    0.0000 </r>
       <r>   14.9810    0.0000 </r>
       <r>   18.9873    0.0000 </r>
       <r>   22.5302    0.0000 </r>
      </set>
      <set comment="kpoint 32">
       <r>  -36.5736    1.0000 </r>
       <r>  -36.5530    1.0000 </r>
       <r>  -36.5326    1.0000 </r>
       <r>  -13.1953    1.0000 </r>
       <r>   -0.8337    1.0000 </r>
       <r>    0.3964    1.0000 </r>
       <r>    1.6682    1.0000 </r>
       <r>   12.5941    0.0000 </r>
       <r>   13.9911    0.0000 </r>
       <r>   15.5757    0.0000 </r>
       <r>   19.3193    0.0000 </r>
       <r>   22.8279    0.0000 </r>
      </set>
      <set comment="kpoint 33">
       <r>  -36.5786    1.0000 </r>
       <r>  -36.5483    1.0000 </r>
       <r>  -36.5439    1.0000 </r>
       <r>  -13.0707    1.0000 </r>
       <r>   -1.0838    1.0000 </r>
       <r>    0.9101    1.0000 </r>
       <r>    1.1841    1.0000 </r>
       <r>   12.4451    0.0000 </r>
       <r>   12.9188    0.0000 </r>
       <r>   15.1807    0.0000 </r>
       <r>   19.8597    0.0000 </r>
       <r>   21.6183    0.0000 </r>
      </set>
      <set comment="kpoint 34">
       <r>  -36.5730    1.0000 </r>
       <r>  -36.5581    1.0000 </r>
       <r>  -36.5427    1.0000 </r>
       <r>  -13.0173    1.0000 </r>
       <r>   -0.7763    1.0000 </r>
       <r>    0.1843    1.0000 </r>
       <r>    1.2015    1.0000 </r>
       <r>   12.9064    0.0000 </r>
       <r>   13.9265    0.0000 </r>
       <r>   14.8060    0.0000 </r>
       <r>   18.9537    0.0000 </r>
       <r>   22.0819    0.0000 </r>
      </set>
      <set comment="kpoint 35">
       <r>  -36.5694    1.0000 </r>
       <r>  -36.5598    1.0000 </r>
       <r>  -36.5438    1.0000 </r>
       <r>  -13.0212    1.0000 </r>
       <r>   -0.5573    1.0000 </r>
       <r>    0.0259    1.0000 </r>
       <r>    1.0383    1.0000 </r>
       <r>   13.7683    0.0000 </r>
       <r>   13.9470    0.0000 </r>
       <r>   14.6015    0.0000 </r>
       <r>   18.1673    0.0000 </r>
       <r>   23.4272    0.0000 </r>
      </set>
     </set>
    </set>
   </array>
  </eigenvalues>
  <separator name="orbital magnetization" >
   <v name="MAGDIPOLOUT">      0.00000000      0.00000000      0.00000000</v>
  </separator>
  <dos>
   <i name="efermi">      2.66212486 </i>
   <total>
    <array>
     <dimension dim="1">gridpoints</dimension>
     <dimension dim="2">spin</dimension>
     <field>energy</field>
     <field>total</field>
     <field>integrated</field>
     <set>
      <set comment="spin 1">
       <r>   -39.6070     0.0000     0.0000 </r>
       <r>   -39.3860     0.0000     0.0000 </r>
       <r>   -39.1650     0.0000     0.0000 </r>
       <r>   -38.9440     0.0000     0.0000 </r>
       <r>   -38.7229     0.0000     0.0000 </r>
       <r>   -38.5019     0.0000     0.0000 </r>
       <r>   -38.2809     0.0000     0.0000 </r>
       <r>   -38.0599     0.0000     0.0000 </r>
       <r>   -37.8389     0.0000     0.0000 </r>
       <r>   -37.6179     0.0000     0.0000 </r>
       <r>   -37.3969     0.0000     0.0000 </r>
       <r>   -37.1758     0.0000     0.0000 </r>
       <r>   -36.9548     0.0000     0.0000 </r>
       <r>   -36.7338     0.0000     0.0000 </r>
       <r>   -36.5128     0.0000     3.0000 </r>
       <r>   -36.2918     0.0000     3.0000 </r>
       <r>   -36.0708     0.0000     3.0000 </r>
       <r>   -35.8498     0.0000     3.0000 </r>
       <r>   -35.6287     0.0000     3.0000 </r>
       <r>   -35.4077     0.0000     3.0000 </r>
       <r>   -35.1867     0.0000     3.0000 </r>
       <r>   -34.9657     0.0000     3.0000 </r>
       <r>   -34.7447     0.0000     3.0000 </r>
       <r>   -34.5237     0.0000     3.0000 </r>
       <r>   -34.3026     0.0000     3.0000 </r>
       <r>   -34.0816     0.0000     3.0000 </r>
       <r>   -33.8606     0.0000     3.0000 </r>
       <r>   -33.6396     0.0000     3.0000 </r>
       <r>   -33.4186     0.0000     3.0000 </r>
       <r>   -33.1976     0.0000     3.0000 </r>
       <r>   -32.9766     0.0000     3.0000 </r>
       <r>   -32.7555     0.0000     3.0000 </r>
       <r>   -32.5345     0.0000     3.0000 </r>
       <r>   -32.3135     0.0000     3.0000 </r>
       <r>   -32.0925     0.0000     3.0000 </r>
       <r>   -31.8715     0.0000     3.0000 </r>
       <r>   -31.6505     0.0000     3.0000 </r>
       <r>   -31.4295     0.0000     3.0000 </r>
       <r>   -31.2084     0.0000     3.0000 </r>
       <r>   -30.9874     0.0000     3.0000 </r>
       <r>   -30.7664     0.0000     3.0000 </r>
       <r>   -30.5454     0.0000     3.0000 </r>
       <r>   -30.3244     0.0000     3.0000 </r>
       <r>   -30.1034     0.0000     3.0000 </r>
       <r>   -29.8823     0.0000     3.0000 </r>
       <r>   -29.6613     0.0000     3.0000 </r>
       <r>   -29.4403     0.0000     3.0000 </r>
       <r>   -29.2193     0.0000     3.0000 </r>
       <r>   -28.9983     0.0000     3.0000 </r>
       <r>   -28.7773     0.0000     3.0000 </r>
       <r>   -28.5563     0.0000     3.0000 </r>
       <r>   -28.3352     0.0000     3.0000 </r>
       <r>   -28.1142     0.0000     3.0000 </r>
       <r>   -27.8932     0.0000     3.0000 </r>
       <r>   -27.6722     0.0000     3.0000 </r>
       <r>   -27.4512     0.0000     3.0000 </r>
       <r>   -27.2302     0.0000     3.0000 </r>
       <r>   -27.0091     0.0000     3.0000 </r>
       <r>   -26.7881     0.0000     3.0000 </r>
       <r>   -26.5671     0.0000     3.0000 </r>
       <r>   -26.3461     0.0000     3.0000 </r>
       <r>   -26.1251     0.0000     3.0000 </r>
       <r>   -25.9041     0.0000     3.0000 </r>
       <r>   -25.6831     0.0000     3.0000 </r>
       <r>   -25.4620     0.0000     3.0000 </r>
       <r>   -25.2410     0.0000     3.0000 </r>
       <r>   -25.0200     0.0000     3.0000 </r>
       <r>   -24.7990     0.0000     3.0000 </r>
       <r>   -24.5780     0.0000     3.0000 </r>
       <r>   -24.3570     0.0000     3.0000 </r>
       <r>   -24.1360     0.0000     3.0000 </r>
       <r>   -23.9149     0.0000     3.0000 </r>
       <r>   -23.6939     0.0000     3.0000 </r>
       <r>   -23.4729     0.0000     3.0000 </r>
       <r>   -23.2519     0.0000     3.0000 </r>
       <r>   -23.0309     0.0000     3.0000 </r>
       <r>   -22.8099     0.0000     3.0000 </r>
       <r>   -22.5888     0.0000     3.0000 </r>
       <r>   -22.3678     0.0000     3.0000 </r>
       <r>   -22.1468     0.0000     3.0000 </r>
       <r>   -21.9258     0.0000     3.0000 </r>
       <r>   -21.7048     0.0000     3.0000 </r>
       <r>   -21.4838     0.0000     3.0000 </r>
       <r>   -21.2628     0.0000     3.0000 </r>
       <r>   -21.0417     0.0000     3.0000 </r>
       <r>   -20.8207     0.0000     3.0000 </r>
       <r>   -20.5997     0.0000     3.0000 </r>
       <r>   -20.3787     0.0000     3.0000 </r>
       <r>   -20.1577     0.0000     3.0000 </r>
       <r>   -19.9367     0.0000     3.0000 </r>
       <r>   -19.7157     0.0000     3.0000 </r>
       <r>   -19.4946     0.0000     3.0000 </r>
       <r>   -19.2736     0.0000     3.0000 </r>
       <r>   -19.0526     0.0000     3.0000 </r>
       <r>   -18.8316     0.0000     3.0000 </r>
       <r>   -18.6106     0.0000     3.0000 </r>
       <r>   -18.3896     0.0000     3.0000 </r>
       <r>   -18.1685     0.0000     3.0000 </r>
       <r>   -17.9475     0.0000     3.0000 </r>
       <r>   -17.7265     0.0000     3.0000 </r>
       <r>   -17.5055     0.0000     3.0000 </r>
       <r>   -17.2845     0.0000     3.0000 </r>
       <r>   -17.0635     0.0000     3.0000 </r>
       <r>   -16.8425     0.0000     3.0000 </r>
       <r>   -16.6214     0.0000     3.0000 </r>
       <r>   -16.4004     0.0000     3.0000 </r>
       <r>   -16.1794     0.0000     3.0000 </r>
       <r>   -15.9584     0.0000     3.0000 </r>
       <r>   -15.7374     0.0000     3.0000 </r>
       <r>   -15.5164     0.0000     3.0000 </r>
       <r>   -15.2954     0.0000     3.0000 </r>
       <r>   -15.0743     0.0000     3.0000 </r>
       <r>   -14.8533     0.0000     3.0000 </r>
       <r>   -14.6323     0.0000     3.0000 </r>
       <r>   -14.4113     0.0715     3.0026 </r>
       <r>   -14.1903     0.1577     3.0278 </r>
       <r>   -13.9693     0.2476     3.0724 </r>
       <r>   -13.7482     0.3744     3.1394 </r>
       <r>   -13.5272     0.5757     3.2434 </r>
       <r>   -13.3062     1.2922     3.4269 </r>
       <r>   -13.0852     2.3781     3.8288 </r>
       <r>   -12.8642     0.0000     4.0000 </r>
       <r>   -12.6432     0.0000     4.0000 </r>
       <r>   -12.4222     0.0000     4.0000 </r>
       <r>   -12.2011     0.0000     4.0000 </r>
       <r>   -11.9801     0.0000     4.0000 </r>
       <r>   -11.7591     0.0000     4.0000 </r>
       <r>   -11.5381     0.0000     4.0000 </r>
       <r>   -11.3171     0.0000     4.0000 </r>
       <r>   -11.0961     0.0000     4.0000 </r>
       <r>   -10.8750     0.0000     4.0000 </r>
       <r>   -10.6540     0.0000     4.0000 </r>
       <r>   -10.4330     0.0000     4.0000 </r>
       <r>   -10.2120     0.0000     4.0000 </r>
       <r>    -9.9910     0.0000     4.0000 </r>
       <r>    -9.7700     0.0000     4.0000 </r>
       <r>    -9.5490     0.0000     4.0000 </r>
       <r>    -9.3279     0.0000     4.0000 </r>
       <r>    -9.1069     0.0000     4.0000 </r>
       <r>    -8.8859     0.0000     4.0000 </r>
       <r>    -8.6649     0.0000     4.0000 </r>
       <r>    -8.4439     0.0000     4.0000 </r>
       <r>    -8.2229     0.0000     4.0000 </r>
       <r>    -8.0019     0.0000     4.0000 </r>
       <r>    -7.7808     0.0000     4.0000 </r>
       <r>    -7.5598     0.0000     4.0000 </r>
       <r>    -7.3388     0.0000     4.0000 </r>
       <r>    -7.1178     0.0000     4.0000 </r>
       <r>    -6.8968     0.0000     4.0000 </r>
       <r>    -6.6758     0.0000     4.0000 </r>
       <r>    -6.4547     0.0000     4.0000 </r>
       <r>    -6.2337     0.0000     4.0000 </r>
       <r>    -6.0127     0.0000     4.0000 </r>
       <r>    -5.7917     0.0000     4.0000 </r>
       <r>    -5.5707     0.0000     4.0000 </r>
       <r>    -5.3497     0.0000     4.0000 </r>
       <r>    -5.1287     0.0000     4.0000 </r>
       <r>    -4.9076     0.0000     4.0000 </r>
       <r>    -4.6866     0.0000     4.0000 </r>
       <r>    -4.4656     0.0000     4.0000 </r>
       <r>    -4.2446     0.0000     4.0000 </r>
       <r>    -4.0236     0.0000     4.0000 </r>
       <r>    -3.8026     0.0000     4.0000 </r>
       <r>    -3.5816     0.0000     4.0000 </r>
       <r>    -3.3605     0.0000     4.0000 </r>
       <r>    -3.1395     0.0000     4.0000 </r>
       <r>    -2.9185     0.0000     4.0000 </r>
       <r>    -2.6975     0.0000     4.0000 </r>
       <r>    -2.4765     0.0000     4.0000 </r>
       <r>    -2.2555     0.0000     4.0000 </r>
       <r>    -2.0344     0.0000     4.0000 </r>
       <r>    -1.8134     0.0000     4.0000 </r>
       <r>    -1.5924     0.1796     4.0257 </r>
       <r>    -1.3714     0.3218     4.0805 </r>
       <r>    -1.1504     0.7391     4.1889 </r>
       <r>    -0.9294     1.3906     4.4461 </r>
       <r>    -0.7084     0.7508     4.7173 </r>
       <r>    -0.4873     0.2325     4.8132 </r>
       <r>    -0.2663     0.1780     4.8578 </r>
       <r>    -0.0453     0.1900     4.8969 </r>
       <r>     0.1757     0.4698     4.9983 </r>
       <r>     0.3967     0.4955     5.1053 </r>
       <r>     0.6177     0.5273     5.2181 </r>
       <r>     0.8388     0.5315     5.3353 </r>
       <r>     1.0598     0.6906     5.4632 </r>
       <r>     1.2808     1.1485     5.6613 </r>
       <r>     1.5018     1.4017     5.9536 </r>
       <r>     1.7228     1.4344     6.2676 </r>
       <r>     1.9438     1.5521     6.6051 </r>
       <r>     2.1648     0.7137     6.8350 </r>
       <r>     2.3859     0.3511     6.9587 </r>
       <r>     2.6069     0.0000     7.0000 </r>
       <r>     2.8279     0.0000     7.0000 </r>
       <r>     3.0489     0.0000     7.0000 </r>
       <r>     3.2699     0.0000     7.0000 </r>
       <r>     3.4909     0.0000     7.0000 </r>
       <r>     3.7119     0.0000     7.0000 </r>
       <r>     3.9330     0.0000     7.0000 </r>
       <r>     4.1540     0.0000     7.0000 </r>
       <r>     4.3750     0.0000     7.0000 </r>
       <r>     4.5960     0.0000     7.0000 </r>
       <r>     4.8170     0.0000     7.0000 </r>
       <r>     5.0380     0.0000     7.0000 </r>
       <r>     5.2591     0.0000     7.0000 </r>
       <r>     5.4801     0.0000     7.0000 </r>
       <r>     5.7011     0.0000     7.0000 </r>
       <r>     5.9221     0.0000     7.0000 </r>
       <r>     6.1431     0.0000     7.0000 </r>
       <r>     6.3641     0.0000     7.0000 </r>
       <r>     6.5851     0.0000     7.0000 </r>
       <r>     6.8062     0.0000     7.0000 </r>
       <r>     7.0272     0.0000     7.0000 </r>
       <r>     7.2482     0.0010     7.0001 </r>
       <r>     7.4692     0.0047     7.0006 </r>
       <r>     7.6902     0.0113     7.0023 </r>
       <r>     7.9112     0.0177     7.0057 </r>
       <r>     8.1322     0.0222     7.0101 </r>
       <r>     8.3533     0.0275     7.0155 </r>
       <r>     8.5743     0.0333     7.0223 </r>
       <r>     8.7953     0.0396     7.0303 </r>
       <r>     9.0163     0.0473     7.0399 </r>
       <r>     9.2373     0.0569     7.0514 </r>
       <r>     9.4583     0.0680     7.0652 </r>
       <r>     9.6794     0.0804     7.0815 </r>
       <r>     9.9004     0.0942     7.1008 </r>
       <r>    10.1214     0.1154     7.1236 </r>
       <r>    10.3424     0.1606     7.1535 </r>
       <r>    10.5634     0.2199     7.1958 </r>
       <r>    10.7844     0.2572     7.2493 </r>
       <r>    11.0054     0.2348     7.3021 </r>
       <r>    11.2265     0.2470     7.3553 </r>
       <r>    11.4475     0.2567     7.4110 </r>
       <r>    11.6685     0.2709     7.4691 </r>
       <r>    11.8895     0.3405     7.5344 </r>
       <r>    12.1105     0.4287     7.6186 </r>
       <r>    12.3315     0.4565     7.7179 </r>
       <r>    12.5525     0.5037     7.8235 </r>
       <r>    12.7736     0.4490     7.9306 </r>
       <r>    12.9946     0.2820     8.0106 </r>
       <r>    13.2156     0.2718     8.0714 </r>
       <r>    13.4366     0.2857     8.1326 </r>
       <r>    13.6576     0.3207     8.1993 </r>
       <r>    13.8786     0.4448     8.2835 </r>
       <r>    14.0997     0.6747     8.4163 </r>
       <r>    14.3207     0.7987     8.5812 </r>
       <r>    14.5417     0.7341     8.7758 </r>
       <r>    14.7627     0.4875     8.9221 </r>
       <r>    14.9837     0.5044     9.0311 </r>
       <r>    15.2047     0.4913     9.1421 </r>
       <r>    15.4257     0.4053     9.2497 </r>
       <r>    15.6468     0.3201     9.3265 </r>
       <r>    15.8678     0.2924     9.3942 </r>
       <r>    16.0888     0.2598     9.4553 </r>
       <r>    16.3098     0.2336     9.5095 </r>
       <r>    16.5308     0.2166     9.5592 </r>
       <r>    16.7518     0.2017     9.6054 </r>
[...]
        <r>  0.0333  0.0000  0.0352  0.0018  0.0000  0.0000  0.0000  0.0000  0.0000 </r>
       </set>
      </set>
      <set comment="kpoint 29">
       <set comment="band 1">
        <r>  0.0000  0.1431  0.8487  0.0000  0.0000  0.0000  0.0000  0.0000  0.0000 </r>
        <r>  0.0003  0.0000  0.0001  0.0000  0.0000  0.0000  0.0000  0.0000  0.0000 </r>
       </set>
       <set comment="band 2">
        <r>  0.0000  0.0000  0.0000  0.9938  0.0000  0.0000  0.0000  0.0000  0.0000 </r>
        <r>  0.0000  0.0000  0.0000  0.0002  0.0000  0.0000  0.0000  0.0000  0.0000 </r>
       </set>
       <set comment="band 3">
        <r>  0.0000  0.8507  0.1435  0.0000  0.0000  0.0000  0.0000  0.0000  0.0000 </r>
        <r>  0.0000  0.0001  0.0000  0.0000  0.0000  0.0000  0.0000  0.0000  0.0000 </r>
       </set>
       <set comment="band 4">
        <r>  0.0085  0.0022  0.0050  0.0000  0.0000  0.0000  0.0035  0.0000  0.0001 </r>
        <r>  0.7524  0.0001  0.0007  0.0000  0.0000  0.0000  0.0000  0.0000  0.0000 </r>
       </set>
       <set comment="band 5">
        <r>  0.0448  0.0011  0.0263  0.0000  0.0000  0.0021  0.0064  0.0000  0.0004 </r>
        <r>  0.0213  0.0514  0.4195  0.0000  0.0000  0.0000  0.0000  0.0000  0.0000 </r>
       </set>
       <set comment="band 6">
        <r>  0.0000  0.0000  0.0000  0.0385  0.0028  0.0000  0.0000  0.0023  0.0000 </r>
        <r>  0.0000  0.0000  0.0000  0.6248  0.0000  0.0000  0.0000  0.0000  0.0000 </r>
       </set>
       <set comment="band 7">
        <r>  0.0060  0.0166  0.0048  0.0000  0.0000  0.0010  0.0058  0.0000  0.0044 </r>
        <r>  0.0001  0.5931  0.0710  0.0000  0.0000  0.0000  0.0000  0.0000  0.0000 </r>
       </set>
       <set comment="band 8">
        <r>  0.1885  0.0219  0.0134  0.0000  0.0000  0.0004  0.0103  0.0000  0.0004 </r>
        <r>  0.0894  0.0257  0.2223  0.0000  0.0000  0.0000  0.0000  0.0000  0.0000 </r>
       </set>
       <set comment="band 9">
        <r>  0.0000  0.0000  0.0000  0.0174  0.1427  0.0000  0.0000  0.0015  0.0000 </r>
        <r>  0.0000  0.0000  0.0000  0.0801  0.0000  0.0000  0.0000  0.0000  0.0000 </r>
       </set>
       <set comment="band 10">
        <r>  0.1787  0.0019  0.1895  0.0000  0.0000  0.0010  0.0006  0.0000  0.0009 </r>
        <r>  0.0006  0.0310  0.0696  0.0000  0.0000  0.0000  0.0000  0.0000  0.0000 </r>
       </set>
       <set comment="band 11">
        <r>  0.0056  0.2882  0.0122  0.0000  0.0000  0.0285  0.0076  0.0000  0.0053 </r>
        <r>  0.0108  0.1047  0.0504  0.0000  0.0000  0.0000  0.0000  0.0000  0.0000 </r>
       </set>
       <set comment="band 12">
        <r>  0.0000  0.0000  0.0000  0.2278  0.0498  0.0000  0.0000  0.0501  0.0000 </r>
        <r>  0.0000  0.0000  0.0000  0.1439  0.0000  0.0000  0.0000  0.0000  0.0000 </r>
       </set>
      </set>
      <set comment="kpoint 30">
       <set comment="band 1">
        <r>  0.0000  0.1744  0.7380  0.0793  0.0000  0.0000  0.0000  0.0000  0.0000 </r>
        <r>  0.0003  0.0000  0.0002  0.0000  0.0000  0.0000  0.0000  0.0000  0.0000 </r>
       </set>
       <set comment="band 2">
        <r>  0.0000  0.0441  0.1553  0.7939  0.0000  0.0000  0.0000  0.0000  0.0000 </r>
        <r>  0.0000  0.0000  0.0000  0.0002  0.0000  0.0000  0.0000  0.0000  0.0000 </r>
       </set>
       <set comment="band 3">
        <r>  0.0000  0.7751  0.0989  0.1201  0.0000  0.0000  0.0000  0.0000  0.0000 </r>
        <r>  0.0001  0.0000  0.0000  0.0000  0.0000  0.0000  0.0000  0.0000  0.0000 </r>
       </set>
       <set comment="band 4">
        <r>  0.0024  0.0041  0.0028  0.0007  0.0000  0.0000  0.0044  0.0000  0.0003 </r>
        <r>  0.7720  0.0000  0.0002  0.0000  0.0000  0.0000  0.0000  0.0000  0.0000 </r>
       </set>
       <set comment="band 5">
        <r>  0.0400  0.0007  0.0335  0.0020  0.0005  0.0032  0.0017  0.0006  0.0005 </r>
        <r>  0.0065  0.0714  0.3694  0.0302  0.0000  0.0000  0.0000  0.0000  0.0000 </r>
       </set>
       <set comment="band 6">
        <r>  0.0045  0.0009  0.0077  0.0330  0.0041  0.0001  0.0037  0.0006  0.0000 </r>
        <r>  0.0010  0.0445  0.0793  0.4484  0.0000  0.0000  0.0000  0.0000  0.0000 </r>
       </set>
       <set comment="band 7">
        <r>  0.0120  0.0068  0.0045  0.0069  0.0000  0.0002  0.0038  0.0004  0.0092 </r>
        <r>  0.0000  0.5024  0.0483  0.0998  0.0000  0.0000  0.0000  0.0000  0.0000 </r>
       </set>
       <set comment="band 8">
        <r>  0.0746  0.0365  0.0132  0.0263  0.0400  0.0018  0.0041  0.0001  0.0008 </r>
        <r>  0.0472  0.0059  0.1119  0.0451  0.0000  0.0000  0.0000  0.0000  0.0000 </r>
       </set>
       <set comment="band 9">
        <r>  0.1050  0.0033  0.0058  0.0098  0.0623  0.0030  0.0009  0.0015  0.0004 </r>
        <r>  0.0118  0.0602  0.0961  0.1128  0.0000  0.0000  0.0000  0.0000  0.0000 </r>
       </set>
       <set comment="band 10">
        <r>  0.2118  0.0007  0.1193  0.0030  0.0027  0.0082  0.0005  0.0006  0.0016 </r>
        <r>  0.0004  0.0472  0.0846  0.0006  0.0000  0.0000  0.0000  0.0000  0.0000 </r>
       </set>
       <set comment="band 11">
        <r>  0.0093  0.3014  0.0121  0.0093  0.0050  0.0117  0.0098  0.0000  0.0017 </r>
        <r>  0.0307  0.0573  0.0551  0.0087  0.0000  0.0000  0.0000  0.0000  0.0000 </r>
       </set>
       <set comment="band 12">
        <r>  0.0031  0.0000  0.0001  0.2228  0.0980  0.0037  0.0100  0.0188  0.0021 </r>
        <r>  0.0113  0.0000  0.0068  0.1046  0.0000  0.0000  0.0000  0.0000  0.0000 </r>
       </set>
      </set>
      <set comment="kpoint 31">
       <set comment="band 1">
        <r>  0.0000  0.2550  0.3594  0.3773  0.0000  0.0000  0.0000  0.0000  0.0000 </r>
        <r>  0.0004  0.0000  0.0001  0.0001  0.0000  0.0000  0.0000  0.0000  0.0000 </r>
       </set>
       <set comment="band 2">
        <r>  0.0000  0.0566  0.6131  0.3232  0.0000  0.0000  0.0000  0.0000  0.0000 </r>
        <r>  0.0000  0.0000  0.0002  0.0001  0.0000  0.0000  0.0000  0.0000  0.0000 </r>
       </set>
       <set comment="band 3">
        <r>  0.0000  0.6818  0.0200  0.2923  0.0000  0.0000  0.0000  0.0000  0.0000 </r>
        <r>  0.0001  0.0000  0.0000  0.0000  0.0000  0.0000  0.0000  0.0000  0.0000 </r>
       </set>
       <set comment="band 4">
        <r>  0.0000  0.0054  0.0007  0.0025  0.0000  0.0000  0.0040  0.0000  0.0005 </r>
        <r>  0.7776  0.0000  0.0000  0.0001  0.0000  0.0000  0.0000  0.0000  0.0000 </r>
       </set>
       <set comment="band 5">
        <r>  0.0489  0.0004  0.0178  0.0118  0.0031  0.0022  0.0006  0.0011  0.0001 </r>
        <r>  0.0003  0.1202  0.1794  0.1807  0.0000  0.0000  0.0000  0.0000  0.0000 </r>
       </set>
       <set comment="band 6">
        <r>  0.0055  0.0003  0.0337  0.0124  0.0022  0.0021  0.0043  0.0003  0.0002 </r>
        <r>  0.0027  0.0317  0.3254  0.1787  0.0000  0.0000  0.0000  0.0000  0.0000 </r>
       </set>
       <set comment="band 7">
        <r>  0.0108  0.0012  0.0013  0.0121  0.0000  0.0000  0.0012  0.0002  0.0159 </r>
        <r>  0.0001  0.4533  0.0128  0.1886  0.0000  0.0000  0.0000  0.0000  0.0000 </r>
       </set>
       <set comment="band 8">
        <r>  0.0006  0.0513  0.0135  0.0520  0.0318  0.0041  0.0032  0.0001  0.0008 </r>
        <r>  0.0441  0.0087  0.0464  0.1234  0.0000  0.0000  0.0000  0.0000  0.0000 </r>
       </set>
       <set comment="band 9">
        <r>  0.0750  0.0002  0.0394  0.0030  0.0139  0.0275  0.0001  0.0039  0.0002 </r>
        <r>  0.0003  0.0633  0.2177  0.0738  0.0000  0.0000  0.0000  0.0000  0.0000 </r>
       </set>
       <set comment="band 10">
        <r>  0.3234  0.0032  0.0368  0.0215  0.0022  0.0087  0.0017  0.0009  0.0020 </r>
        <r>  0.0007  0.0938  0.0284  0.0065  0.0000  0.0000  0.0000  0.0000  0.0000 </r>
       </set>
       <set comment="band 11">
        <r>  0.0023  0.2971  0.0043  0.0343  0.0209  0.0027  0.0078  0.0001  0.0001 </r>
        <r>  0.0415  0.0075  0.0154  0.0513  0.0000  0.0000  0.0000  0.0000  0.0000 </r>
       </set>
       <set comment="band 12">
        <r>  0.0063  0.0024  0.0041  0.1676  0.1526  0.0118  0.0410  0.0007  0.0025 </r>
        <r>  0.0363  0.0061  0.0010  0.0278  0.0000  0.0000  0.0000  0.0000  0.0000 </r>
       </set>
      </set>
      <set comment="kpoint 32">
       <set comment="band 1">
        <r>  0.0000  0.3393  0.0000  0.6523  0.0000  0.0000  0.0000  0.0000  0.0000 </r>
        <r>  0.0005  0.0000  0.0000  0.0001  0.0000  0.0000  0.0000  0.0000  0.0000 </r>
       </set>
       <set comment="band 2">
        <r>  0.0000  0.0000  0.9932  0.0000  0.0000  0.0000  0.0000  0.0000  0.0000 </r>
        <r>  0.0000  0.0000  0.0002  0.0000  0.0000  0.0000  0.0000  0.0000  0.0000 </r>
       </set>
       <set comment="band 3">
        <r>  0.0000  0.6540  0.0000  0.3403  0.0000  0.0000  0.0000  0.0000  0.0000 </r>
        <r>  0.0000  0.0000  0.0000  0.0000  0.0000  0.0000  0.0000  0.0000  0.0000 </r>
       </set>
       <set comment="band 4">
        <r>  0.0027  0.0054  0.0000  0.0047  0.0000  0.0000  0.0026  0.0000  0.0007 </r>
        <r>  0.7655  0.0001  0.0000  0.0003  0.0000  0.0000  0.0000  0.0000  0.0000 </r>
       </set>
       <set comment="band 5">
        <r>  0.0656  0.0000  0.0000  0.0147  0.0050  0.0000  0.0047  0.0000  0.0003 </r>
        <r>  0.0112  0.1528  0.0000  0.3216  0.0000  0.0000  0.0000  0.0000  0.0000 </r>
       </set>
       <set comment="band 6">
        <r>  0.0000  0.0000  0.0487  0.0000  0.0000  0.0047  0.0000  0.0025  0.0000 </r>
        <r>  0.0000  0.0000  0.5565  0.0000  0.0000  0.0000  0.0000  0.0000  0.0000 </r>
       </set>
       <set comment="band 7">
        <r>  0.0061  0.0002  0.0000  0.0096  0.0000  0.0000  0.0004  0.0000  0.0209 </r>
        <r>  0.0002  0.4581  0.0000  0.2146  0.0000  0.0000  0.0000  0.0000  0.0000 </r>
       </set>
       <set comment="band 8">
        <r>  0.0520  0.0549  0.0000  0.0479  0.0090  0.0000  0.0053  0.0000  0.0012 </r>
        <r>  0.0717  0.0555  0.0000  0.1955  0.0000  0.0000  0.0000  0.0000  0.0000 </r>
       </set>
       <set comment="band 9">
        <r>  0.0000  0.0000  0.0607  0.0000  0.0000  0.0690  0.0000  0.0079  0.0000 </r>
        <r>  0.0000  0.0000  0.2343  0.0000  0.0000  0.0000  0.0000  0.0000  0.0000 </r>
       </set>
       <set comment="band 10">
        <r>  0.3219  0.0138  0.0000  0.0811  0.0018  0.0000  0.0042  0.0000  0.0009 </r>
        <r>  0.0012  0.1016  0.0000  0.0027  0.0000  0.0000  0.0000  0.0000  0.0000 </r>
       </set>
       <set comment="band 11">
        <r>  0.0003  0.2860  0.0000  0.0716  0.0196  0.0000  0.0011  0.0000  0.0046 </r>
        <r>  0.0197  0.0023  0.0000  0.0948  0.0000  0.0000  0.0000  0.0000  0.0000 </r>
       </set>
       <set comment="band 12">
        <r>  0.0000  0.0000  0.1049  0.0000  0.0000  0.1618  0.0000  0.0726  0.0000 </r>
        <r>  0.0000  0.0000  0.0512  0.0000  0.0000  0.0000  0.0000  0.0000  0.0000 </r>
       </set>
      </set>
      <set comment="kpoint 33">
       <set comment="band 1">
        <r>  0.0000  0.0216  0.9700  0.0000  0.0000  0.0000  0.0000  0.0000  0.0000 </r>
        <r>  0.0001  0.0000  0.0003  0.0000  0.0000  0.0000  0.0000  0.0000  0.0000 </r>
       </set>
       <set comment="band 2">
        <r>  0.0000  0.0000  0.0000  0.9935  0.0000  0.0000  0.0000  0.0000  0.0000 </r>
        <r>  0.0000  0.0000  0.0000  0.0002  0.0000  0.0000  0.0000  0.0000  0.0000 </r>
       </set>
       <set comment="band 3">
        <r>  0.0000  0.9720  0.0217  0.0000  0.0000  0.0000  0.0000  0.0000  0.0000 </r>
        <r>  0.0001  0.0001  0.0000  0.0000  0.0000  0.0000  0.0000  0.0000  0.0000 </r>
       </set>
       <set comment="band 4">
        <r>  0.0033  0.0022  0.0009  0.0000  0.0000  0.0000  0.0068  0.0000  0.0001 </r>
        <r>  0.7790  0.0000  0.0001  0.0000  0.0000  0.0000  0.0000  0.0000  0.0000 </r>
       </set>
       <set comment="band 5">
        <r>  0.0073  0.0002  0.0625  0.0000  0.0000  0.0015  0.0012  0.0000  0.0001 </r>
        <r>  0.0029  0.0073  0.4592  0.0000  0.0000  0.0000  0.0000  0.0000  0.0000 </r>
       </set>
       <set comment="band 6">
        <r>  0.0000  0.0000  0.0000  0.0443  0.0031  0.0000  0.0000  0.0003  0.0000 </r>
        <r>  0.0000  0.0000  0.0000  0.6039  0.0000  0.0000  0.0000  0.0000  0.0000 </r>
       </set>
       <set comment="band 7">
        <r>  0.0208  0.0219  0.0014  0.0000  0.0000  0.0001  0.0019  0.0000  0.0045 </r>
        <r>  0.0001  0.6214  0.0099  0.0000  0.0000  0.0000  0.0000  0.0000  0.0000 </r>
       </set>
       <set comment="band 8">
        <r>  0.0000  0.0000  0.0000  0.0124  0.1466  0.0000  0.0000  0.0001  0.0000 </r>
        <r>  0.0000  0.0000  0.0000  0.0806  0.0000  0.0000  0.0000  0.0000  0.0000 </r>
       </set>
       <set comment="band 9">
        <r>  0.3832  0.0177  0.0005  0.0000  0.0000  0.0003  0.0029  0.0000  0.0007 </r>
        <r>  0.0475  0.0415  0.0518  0.0000  0.0000  0.0000  0.0000  0.0000  0.0000 </r>
       </set>
       <set comment="band 10">
        <r>  0.0397  0.0005  0.1258  0.0000  0.0000  0.0087  0.0006  0.0000  0.0001 </r>
        <r>  0.0009  0.0059  0.3436  0.0000  0.0000  0.0000  0.0000  0.0000  0.0000 </r>
       </set>
       <set comment="band 11">
        <r>  0.0178  0.3172  0.0010  0.0000  0.0000  0.0036  0.0158  0.0000  0.0025 </r>
        <r>  0.0328  0.1443  0.0124  0.0000  0.0000  0.0000  0.0000  0.0000  0.0000 </r>
       </set>
       <set comment="band 12">
        <r>  0.0000  0.0000  0.0000  0.3077  0.0409  0.0000  0.0000  0.0048  0.0000 </r>
        <r>  0.0000  0.0000  0.0000  0.1989  0.0000  0.0000  0.0000  0.0000  0.0000 </r>
       </set>
      </set>
      <set comment="kpoint 34">
       <set comment="band 1">
        <r>  0.0000  0.0000  0.9920  0.0000  0.0000  0.0000  0.0000  0.0000  0.0000 </r>
        <r>  0.0000  0.0000  0.0003  0.0000  0.0000  0.0000  0.0000  0.0000  0.0000 </r>
       </set>
       <set comment="band 2">
        <r>  0.0000  0.2571  0.0000  0.7357  0.0000  0.0000  0.0000  0.0000  0.0000 </r>
        <r>  0.0002  0.0000  0.0000  0.0002  0.0000  0.0000  0.0000  0.0000  0.0000 </r>
       </set>
       <set comment="band 3">
        <r>  0.0000  0.7364  0.0000  0.2574  0.0000  0.0000  0.0000  0.0000  0.0000 </r>
        <r>  0.0001  0.0000  0.0000  0.0001  0.0000  0.0000  0.0000  0.0000  0.0000 </r>
       </set>
       <set comment="band 4">
        <r>  0.0009  0.0041  0.0000  0.0007  0.0000  0.0000  0.0061  0.0000  0.0003 </r>
        <r>  0.7833  0.0000  0.0000  0.0000  0.0000  0.0000  0.0000  0.0000  0.0000 </r>
       </set>
       <set comment="band 5">
        <r>  0.0000  0.0000  0.0649  0.0000  0.0000  0.0028  0.0000  0.0004  0.0000 </r>
        <r>  0.0000  0.0000  0.4839  0.0000  0.0000  0.0000  0.0000  0.0000  0.0000 </r>
       </set>
       <set comment="band 6">
        <r>  0.0264  0.0027  0.0000  0.0321  0.0046  0.0000  0.0017  0.0000  0.0002 </r>
        <r>  0.0001  0.1437  0.0000  0.4012  0.0000  0.0000  0.0000  0.0000  0.0000 </r>
       </set>
       <set comment="band 7">
        <r>  0.0189  0.0074  0.0000  0.0129  0.0002  0.0000  0.0012  0.0000  0.0094 </r>
        <r>  0.0001  0.4665  0.0000  0.1659  0.0000  0.0000  0.0000  0.0000  0.0000 </r>
       </set>
       <set comment="band 8">
        <r>  0.0316  0.0177  0.0000  0.0349  0.0957  0.0000  0.0007  0.0000  0.0004 </r>
        <r>  0.0137  0.0004  0.0000  0.1174  0.0000  0.0000  0.0000  0.0000  0.0000 </r>
       </set>
       <set comment="band 9">
        <r>  0.3828  0.0106  0.0000  0.0001  0.0105  0.0000  0.0000  0.0000  0.0020 </r>
        <r>  0.0149  0.1098  0.0000  0.0425  0.0000  0.0000  0.0000  0.0000  0.0000 </r>
       </set>
       <set comment="band 10">
        <r>  0.0000  0.0000  0.0990  0.0000  0.0000  0.0254  0.0000  0.0015  0.0000 </r>
        <r>  0.0000  0.0000  0.3744  0.0000  0.0000  0.0000  0.0000  0.0000  0.0000 </r>
       </set>
       <set comment="band 11">
        <r>  0.0204  0.3115  0.0000  0.0033  0.0118  0.0000  0.0204  0.0000  0.0006 </r>
        <r>  0.0611  0.0713  0.0000  0.0057  0.0000  0.0000  0.0000  0.0000  0.0000 </r>
       </set>
       <set comment="band 12">
        <r>  0.0036  0.0034  0.0000  0.2710  0.0869  0.0000  0.0108  0.0000  0.0014 </r>
        <r>  0.0107  0.0019  0.0000  0.1369  0.0000  0.0000  0.0000  0.0000  0.0000 </r>
       </set>
      </set>
      <set comment="kpoint 35">
       <set comment="band 1">
        <r>  0.0000  0.1009  0.8913  0.0000  0.0000  0.0000  0.0000  0.0000  0.0000 </r>
        <r>  0.0001  0.0000  0.0002  0.0000  0.0000  0.0000  0.0000  0.0000  0.0000 </r>
       </set>
       <set comment="band 2">
        <r>  0.0000  0.0000  0.0000  0.9928  0.0000  0.0000  0.0000  0.0000  0.0000 </r>
        <r>  0.0000  0.0000  0.0000  0.0003  0.0000  0.0000  0.0000  0.0000  0.0000 </r>
       </set>
       <set comment="band 3">
        <r>  0.0000  0.8925  0.1011  0.0000  0.0000  0.0000  0.0000  0.0000  0.0000 </r>
        <r>  0.0002  0.0000  0.0000  0.0000  0.0000  0.0000  0.0000  0.0000  0.0000 </r>
       </set>
       <set comment="band 4">
        <r>  0.0003  0.0053  0.0008  0.0000  0.0000  0.0000  0.0048  0.0000  0.0010 </r>
        <r>  0.7824  0.0000  0.0000  0.0000  0.0000  0.0000  0.0000  0.0000  0.0000 </r>
       </set>
       <set comment="band 5">
        <r>  0.0167  0.0000  0.0497  0.0000  0.0000  0.0044  0.0004  0.0000  0.0007 </r>
        <r>  0.0013  0.0447  0.4507  0.0000  0.0000  0.0000  0.0000  0.0000  0.0000 </r>
       </set>
       <set comment="band 6">
        <r>  0.0000  0.0000  0.0000  0.0548  0.0050  0.0000  0.0000  0.0003  0.0000 </r>
        <r>  0.0000  0.0000  0.0000  0.5327  0.0000  0.0000  0.0000  0.0000  0.0000 </r>
       </set>
       <set comment="band 7">
        <r>  0.0393  0.0009  0.0062  0.0000  0.0000  0.0000  0.0047  0.0000  0.0094 </r>
        <r>  0.0000  0.5613  0.0550  0.0000  0.0000  0.0000  0.0000  0.0000  0.0000 </r>
       </set>
       <set comment="band 8">
        <r>  0.0000  0.0000  0.0000  0.0532  0.0820  0.0000  0.0000  0.0005  0.0000 </r>
        <r>  0.0000  0.0000  0.0000  0.2444  0.0000  0.0000  0.0000  0.0000  0.0000 </r>
       </set>
       <set comment="band 9">
        <r>  0.0958  0.0229  0.0424  0.0000  0.0000  0.0293  0.0010  0.0000  0.0019 </r>
        <r>  0.0197  0.0465  0.2448  0.0000  0.0000  0.0000  0.0000  0.0000  0.0000 </r>
       </set>
       <set comment="band 10">
        <r>  0.3264  0.0003  0.0416  0.0000  0.0000  0.0122  0.0012  0.0000  0.0039 </r>
        <r>  0.0000  0.1112  0.0432  0.0000  0.0000  0.0000  0.0000  0.0000  0.0000 </r>
       </set>
       <set comment="band 11">
        <r>  0.0043  0.3245  0.0068  0.0000  0.0000  0.0086  0.0129  0.0000  0.0007 </r>
        <r>  0.0763  0.0127  0.0322  0.0000  0.0000  0.0000  0.0000  0.0000  0.0000 </r>
       </set>
       <set comment="band 12">
        <r>  0.0000  0.0000  0.0000  0.2189  0.1528  0.0000  0.0000  0.0069  0.0000 </r>
        <r>  0.0000  0.0000  0.0000  0.1100  0.0000  0.0000  0.0000  0.0000  0.0000 </r>
       </set>
      </set>
     </set>
    </set>
   </array>
  </projected>
 </calculation>
 <structure name="finalpos" >
  <crystal>
   <varray name="basis" >
    <v>       0.00000000       2.12591000       2.12591000 </v>
    <v>       2.12591000       0.00000000       2.12591000 </v>
    <v>       2.12591000       2.12591000       0.00000000 </v>
   </varray>
   <i name="volume">     19.21607212 </i>
   <varray name="rec_basis" >
    <v>      -0.23519340       0.23519340       0.23519340 </v>
    <v>       0.23519340      -0.23519340       0.23519340 </v>
    <v>       0.23519340       0.23519340      -0.23519340 </v>
   </varray>
  </crystal>
  <varray name="positions" >
   <v>       0.00000000       0.00000000       0.00000000 </v>
   <v>       0.50000000       0.50000000       0.50000000 </v>
  </varray>
 </structure>
</modeling>
