pymatgen autogenerated data file

8 atoms

2 atom types

0 4.1990858 xlo xhi
0 4.1990858 ylo yhi
0 4.1990858 zlo zhi
2.571198492157551e-16 2.571198492157551e-16 2.5711984921575517e-16 xy xz yz

Masses

1 24.305
2 15.9994

Atoms

1 1 1 1.4 0.0 0.0 0.0
2 1 1 1.4 3.3763224914577695e-16 2.0995429 2.0995429
3 1 1 1.4 2.0995429 0.0 2.0995429
4 1 1 1.4 2.0995429000000003 2.0995429 2.571198492157551e-16
5 1 2 -1.4 2.0995429000000003 2.0995429 2.0995429000000003
6 1 2 -1.4 2.0995429 0.0 1.2855992460787756e-16
7 1 2 -1.4 3.3763224914577695e-16 2.0995429 1.2855992460787756e-16
8 1 2 -1.4 0.0 0.0 2.0995429
