ITEM: TIMESTEP
0
ITEM: NUMBER OF ATOMS
8
ITEM: BOX BOUNDS xy xz yz pp pp pp
0 4.19909 2.5712e-16
0 4.19909 2.5712e-16
0 4.19909 2.5712e-16
ITEM: ATOMS id type x y z fx fy fz 
1 1 0 0 0 1.77636e-15 1.40513e-15 1.9984e-15 
2 1 3.37632e-16 2.09954 2.09954 8.88178e-16 1.08802e-14 1.72085e-15 
3 1 2.09954 1.2856e-16 2.09954 1.63758e-14 -8.70831e-15 1.26808e-15 
4 1 2.09954 2.09954 2.5712e-16 9.67976e-16 -2.35922e-16 4.4912e-15 
5 2 2.09954 2.09954 2.09954 -6.04378e-15 1.20806e-14 -1.62717e-14 
6 2 2.09954 7.87203e-33 1.2856e-16 -3.27516e-15 -2.29677e-15 -4.42354e-16 
7 2 3.37632e-16 2.09954 1.2856e-16 -1.33227e-15 -2.44249e-15 8.88178e-16 
8 2 1.2856e-16 1.2856e-16 2.09954 -8.88178e-15 -1.113e-14 -9.99201e-16 
